Generated by Psi4
        SP                           RHF                 6-311+G(2D,P)
Number of atoms                            I                7
Charge                                     I                0
Multiplicity                               I                1
Number of electrons                        I               28
Number of alpha electrons                  I               14
Number of beta electrons                   I               14
Number of basis functions                  I              126
Number of independent functions            I              126
Atomic numbers                             I   N=           7
           6           6           1           1           1           6
           7
Nuclear charges                            R   N=           7
  6.00000000e+00  6.00000000e+00  1.00000000e+00  1.00000000e+00  1.00000000e+00
  6.00000000e+00  7.00000000e+00
Current cartesian coordinates              R   N=          21
 -2.87139216e+00 -1.58839957e+00 -5.60342225e-05 -3.41972184e-01 -1.56383603e+00
 -3.97031392e-05 -3.97173075e+00  1.42752200e-01 -4.08053069e-05 -3.89970102e+00
 -3.36293064e+00 -7.59285595e-05  7.39908172e-01 -3.31096881e+00 -8.03557552e-05
  1.10619736e+00  7.20283587e-01  2.47410673e-05  2.31901451e+00  2.55413046e+00
  7.50254827e-05
Integer atomic weights                     I   N=           7
          12          12           1           1           1          12
          14
Real atomic weights                        R   N=           7
  1.20000000e+01  1.20000000e+01  1.00782503e+00  1.00782503e+00  1.00782503e+00
  1.20000000e+01  1.40030740e+01
Number of primitive shells                 I               98
Number of contracted shells                I               56
Pure/Cartesian d shells                    I                0
Pure/Cartesian f shells                    I                0
Highest angular momentum                   I                2
Largest degree of contraction              I                6
Shell types                                I   N=          56
           0           0           1           0           1           0
           1          -2          -2           0           1           0
           0           1           0           1           0           1
          -2          -2           0           1           0           0
           0           1           0           0           0           1
           0           0           0           1           0           0
           1           0           1           0           1          -2
          -2           0           1           0           0           1
           0           1           0           1          -2          -2
           0           1
Number of primitives per shell             I   N=          56
           6           3           3           1           1           1
           1           1           1           1           1           6
           3           3           1           1           1           1
           1           1           1           1           3           1
           1           1           3           1           1           1
           3           1           1           1           6           3
           3           1           1           1           1           1
           1           1           1           6           3           3
           1           1           1           1           1           1
           1           1
Shell to atom map                          I   N=          56
           1           1           1           1           1           1
           1           1           1           1           1           2
           2           2           2           2           2           2
           2           2           2           2           3           3
           3           3           4           4           4           4
           5           5           5           5           6           6
           6           6           6           6           6           6
           6           6           6           7           7           7
           7           7           7           7           7           7
           7           7
Primitive exponents                        R   N=          98
  4.56324000e+03  6.82024000e+02  1.54973000e+02  4.44553000e+01  1.30290000e+01
  1.82773000e+00  2.09642000e+01  4.80331000e+00  1.45933000e+00  2.09642000e+01
  4.80331000e+00  1.45933000e+00  4.83456000e-01  4.83456000e-01  1.45585000e-01
  1.45585000e-01  1.25200000e+00  3.13000000e-01  4.38000000e-02  4.38000000e-02
  4.56324000e+03  6.82024000e+02  1.54973000e+02  4.44553000e+01  1.30290000e+01
  1.82773000e+00  2.09642000e+01  4.80331000e+00  1.45933000e+00  2.09642000e+01
  4.80331000e+00  1.45933000e+00  4.83456000e-01  4.83456000e-01  1.45585000e-01
  1.45585000e-01  1.25200000e+00  3.13000000e-01  4.38000000e-02  4.38000000e-02
  3.38650000e+01  5.09479000e+00  1.15879000e+00  3.25840000e-01  1.02741000e-01
  7.50000000e-01  3.38650000e+01  5.09479000e+00  1.15879000e+00  3.25840000e-01
  1.02741000e-01  7.50000000e-01  3.38650000e+01  5.09479000e+00  1.15879000e+00
  3.25840000e-01  1.02741000e-01  7.50000000e-01  4.56324000e+03  6.82024000e+02
  1.54973000e+02  4.44553000e+01  1.30290000e+01  1.82773000e+00  2.09642000e+01
  4.80331000e+00  1.45933000e+00  2.09642000e+01  4.80331000e+00  1.45933000e+00
  4.83456000e-01  4.83456000e-01  1.45585000e-01  1.45585000e-01  1.25200000e+00
  3.13000000e-01  4.38000000e-02  4.38000000e-02  6.29348000e+03  9.49044000e+02
  2.18776000e+02  6.36916000e+01  1.88282000e+01  2.72023000e+00  3.06331000e+01
  7.02614000e+00  2.11205000e+00  3.06331000e+01  7.02614000e+00  2.11205000e+00
  6.84009000e-01  6.84009000e-01  2.00878000e-01  2.00878000e-01  1.82600000e+00
  4.56500000e-01  6.39000000e-02  6.39000000e-02
Contraction coefficients                   R   N=          98
  1.96665025e-03  1.52306019e-02  7.61269097e-02  2.60801033e-01  6.16462078e-01
  2.21006028e-01  1.14660081e-01  9.19999648e-01 -3.03068213e-03  4.02486927e-02
  2.37593957e-01  8.15853851e-01  1.00000000e+00  1.00000000e+00  1.00000000e+00
  1.00000000e+00  1.00000000e+00  1.00000000e+00  1.00000000e+00  1.00000000e+00
  1.96665025e-03  1.52306019e-02  7.61269097e-02  2.60801033e-01  6.16462078e-01
  2.21006028e-01  1.14660081e-01  9.19999648e-01 -3.03068213e-03  4.02486927e-02
  2.37593957e-01  8.15853851e-01  1.00000000e+00  1.00000000e+00  1.00000000e+00
  1.00000000e+00  1.00000000e+00  1.00000000e+00  1.00000000e+00  1.00000000e+00
  2.54938145e-02  1.90373109e-01  8.52161486e-01  1.00000000e+00  1.00000000e+00
  1.00000000e+00  2.54938145e-02  1.90373109e-01  8.52161486e-01  1.00000000e+00
  1.00000000e+00  1.00000000e+00  2.54938145e-02  1.90373109e-01  8.52161486e-01
  1.00000000e+00  1.00000000e+00  1.00000000e+00  1.96665025e-03  1.52306019e-02
  7.61269097e-02  2.60801033e-01  6.16462078e-01  2.21006028e-01  1.14660081e-01
  9.19999648e-01 -3.03068213e-03  4.02486927e-02  2.37593957e-01  8.15853851e-01
  1.00000000e+00  1.00000000e+00  1.00000000e+00  1.00000000e+00  1.00000000e+00
  1.00000000e+00  1.00000000e+00  1.00000000e+00  1.96978815e-03  1.49612859e-02
  7.35005308e-02  2.48936766e-01  6.02459433e-01  2.56201759e-01  1.11906080e-01
  9.21666655e-01 -2.56919183e-03  3.83119186e-02  2.37403116e-01  8.17592398e-01
  1.00000000e+00  1.00000000e+00  1.00000000e+00  1.00000000e+00  1.00000000e+00
  1.00000000e+00  1.00000000e+00  1.00000000e+00
Coordinates of each shell                  R   N=         168
 -2.87139216e+00 -1.58839957e+00 -5.60342225e-05 -2.87139216e+00 -1.58839957e+00
 -5.60342225e-05 -2.87139216e+00 -1.58839957e+00 -5.60342225e-05 -2.87139216e+00
 -1.58839957e+00 -5.60342225e-05 -2.87139216e+00 -1.58839957e+00 -5.60342225e-05
 -2.87139216e+00 -1.58839957e+00 -5.60342225e-05 -2.87139216e+00 -1.58839957e+00
 -5.60342225e-05 -2.87139216e+00 -1.58839957e+00 -5.60342225e-05 -2.87139216e+00
 -1.58839957e+00 -5.60342225e-05 -2.87139216e+00 -1.58839957e+00 -5.60342225e-05
 -2.87139216e+00 -1.58839957e+00 -5.60342225e-05 -3.41972184e-01 -1.56383603e+00
 -3.97031392e-05 -3.41972184e-01 -1.56383603e+00 -3.97031392e-05 -3.41972184e-01
 -1.56383603e+00 -3.97031392e-05 -3.41972184e-01 -1.56383603e+00 -3.97031392e-05
 -3.41972184e-01 -1.56383603e+00 -3.97031392e-05 -3.41972184e-01 -1.56383603e+00
 -3.97031392e-05 -3.41972184e-01 -1.56383603e+00 -3.97031392e-05 -3.41972184e-01
 -1.56383603e+00 -3.97031392e-05 -3.41972184e-01 -1.56383603e+00 -3.97031392e-05
 -3.41972184e-01 -1.56383603e+00 -3.97031392e-05 -3.41972184e-01 -1.56383603e+00
 -3.97031392e-05 -3.97173075e+00  1.42752200e-01 -4.08053069e-05 -3.97173075e+00
  1.42752200e-01 -4.08053069e-05 -3.97173075e+00  1.42752200e-01 -4.08053069e-05
 -3.97173075e+00  1.42752200e-01 -4.08053069e-05 -3.89970102e+00 -3.36293064e+00
 -7.59285595e-05 -3.89970102e+00 -3.36293064e+00 -7.59285595e-05 -3.89970102e+00
 -3.36293064e+00 -7.59285595e-05 -3.89970102e+00 -3.36293064e+00 -7.59285595e-05
  7.39908172e-01 -3.31096881e+00 -8.03557552e-05  7.39908172e-01 -3.31096881e+00
 -8.03557552e-05  7.39908172e-01 -3.31096881e+00 -8.03557552e-05  7.39908172e-01
 -3.31096881e+00 -8.03557552e-05  1.10619736e+00  7.20283587e-01  2.47410673e-05
  1.10619736e+00  7.20283587e-01  2.47410673e-05  1.10619736e+00  7.20283587e-01
  2.47410673e-05  1.10619736e+00  7.20283587e-01  2.47410673e-05  1.10619736e+00
  7.20283587e-01  2.47410673e-05  1.10619736e+00  7.20283587e-01  2.47410673e-05
  1.10619736e+00  7.20283587e-01  2.47410673e-05  1.10619736e+00  7.20283587e-01
  2.47410673e-05  1.10619736e+00  7.20283587e-01  2.47410673e-05  1.10619736e+00
  7.20283587e-01  2.47410673e-05  1.10619736e+00  7.20283587e-01  2.47410673e-05
  2.31901451e+00  2.55413046e+00  7.50254827e-05  2.31901451e+00  2.55413046e+00
  7.50254827e-05  2.31901451e+00  2.55413046e+00  7.50254827e-05  2.31901451e+00
  2.55413046e+00  7.50254827e-05  2.31901451e+00  2.55413046e+00  7.50254827e-05
  2.31901451e+00  2.55413046e+00  7.50254827e-05  2.31901451e+00  2.55413046e+00
  7.50254827e-05  2.31901451e+00  2.55413046e+00  7.50254827e-05  2.31901451e+00
  2.55413046e+00  7.50254827e-05  2.31901451e+00  2.55413046e+00  7.50254827e-05
  2.31901451e+00  2.55413046e+00  7.50254827e-05
Total Energy                               R     -1.698134855886958e+02
Alpha Orbital Energies                     R   N=         126
 -1.55811117e+01 -1.12964537e+01 -1.12867624e+01 -1.12858847e+01 -1.22492496e+00
 -1.10163219e+00 -8.89396515e-01 -7.29895825e-01 -6.64006592e-01 -5.88715296e-01
 -5.56831001e-01 -5.18995482e-01 -4.70091112e-01 -3.98106675e-01  5.54904628e-02
  6.21394557e-02  7.65612824e-02  8.33616064e-02  1.15854495e-01  1.16379778e-01
  1.29649353e-01  1.46261932e-01  1.60854972e-01  1.61147832e-01  1.65608551e-01
  1.86918179e-01  1.98524841e-01  2.13006707e-01  2.56404211e-01  2.81470959e-01
  2.93609409e-01  3.01067385e-01  3.17825165e-01  3.40087592e-01  3.40944668e-01
  3.54517827e-01  4.27327752e-01  4.56775646e-01  5.50609549e-01  6.20648204e-01
  6.58100605e-01  6.58123402e-01  6.83101355e-01  6.96039126e-01  7.30504467e-01
  7.35943498e-01  7.85528554e-01  7.88017834e-01  8.05605032e-01  8.22213520e-01
  8.35822191e-01  8.43131343e-01  8.85286601e-01  9.44217083e-01  9.46622216e-01
  9.69892308e-01  9.91417426e-01  1.03533515e+00  1.04364554e+00  1.06978042e+00
  1.07256148e+00  1.15190643e+00  1.23290828e+00  1.30969610e+00  1.33082729e+00
  1.37319993e+00  1.43667555e+00  1.46826081e+00  1.52386316e+00  1.54291184e+00
  1.56858494e+00  1.64958697e+00  1.68493808e+00  1.72170857e+00  1.94017789e+00
  1.96021265e+00  2.04020522e+00  2.09059875e+00  2.15382351e+00  2.27055442e+00
  2.31822763e+00  2.39510870e+00  2.45492793e+00  2.52850953e+00  2.64374307e+00
  2.74069968e+00  2.82017663e+00  2.94138056e+00  3.07995108e+00  3.12404430e+00
  3.16408313e+00  3.20018747e+00  3.27655942e+00  3.31424720e+00  3.42166789e+00
  3.42284789e+00  3.52102388e+00  3.57980398e+00  3.61937270e+00  3.64703757e+00
  3.64831674e+00  3.70626946e+00  3.73866427e+00  3.79373632e+00  3.85878358e+00
  3.87792075e+00  3.91015778e+00  3.99730104e+00  4.11361821e+00  4.12985401e+00
  4.20609321e+00  4.43856912e+00  4.51973419e+00  4.57989808e+00  4.67501748e+00
  5.04427610e+00  5.25159522e+00  5.25691953e+00  5.32725326e+00  5.56700745e+00
  5.61578814e+00  6.14188190e+00  2.49123608e+01  2.52249572e+01  2.53292263e+01
  3.72226331e+01
Alpha MO coefficients                      R   N=       15876
 -4.29056631e-07  2.86366465e-06  6.46463890e-06 -1.98409397e-08 -1.22450769e-11
 -1.60067224e-05 -1.56785078e-05 -7.97534966e-07  2.42151075e-10 -2.44381314e-04
 -6.11736748e-05 -1.05782103e-04 -2.63180834e-09 -1.36794687e-06  1.22315853e-10
 -2.30696132e-10  9.18215316e-06 -6.61843171e-07  2.16287986e-05  9.95378984e-10
  2.96851646e-10  2.44549223e-06  9.26155289e-05  3.56109137e-05  7.74724326e-05
  1.25832751e-04  3.25477375e-09  8.30845579e-07  4.41778951e-08 -2.30514417e-05
 -3.05042787e-05 -8.88350231e-10 -1.44732590e-04  1.00974756e-04  1.27137508e-04
  3.82835855e-09  2.78305140e-03  5.37826728e-04  1.07464476e-03  3.01119916e-08
  4.62329393e-06 -1.12880216e-10 -2.14216317e-10 -2.39693215e-07 -1.55127775e-06
 -1.38660646e-04  6.01910392e-09  8.67354650e-09 -6.75684103e-05  2.16078383e-04
 -1.73106999e-03 -4.35856211e-04 -4.65334071e-04 -1.42878494e-08 -5.64580664e-06
  1.41948028e-04 -2.30579225e-05  7.18953479e-06 -1.78252691e-05 -1.38436534e-10
 -7.84532966e-07 -3.79987617e-05  3.92627967e-05  1.62357293e-05 -1.43082583e-05
  0.00000000e+00  1.32160495e-05 -3.83803058e-05  1.37807125e-04  5.68336877e-06
  3.77061775e-06  8.41678609e-11  9.79991789e-05 -1.14616708e-04  1.06477959e-04
  1.57680103e-04  4.32225182e-09  1.18702099e-03  6.70630665e-04  1.03193159e-03
  2.85710262e-08  1.31012847e-03  1.86636028e-03  2.85973737e-03  7.93079503e-08
 -1.08128547e-04  4.70228170e-09  7.10200774e-09 -7.13605044e-05  1.71403533e-04
 -7.63530958e-05  3.32044247e-09  4.21114948e-09 -3.47834306e-05  1.24014430e-04
  1.91503368e-03 -1.05388959e-04 -4.53713997e-04 -1.09785268e-08  5.57775843e-01
  4.68376857e-01 -1.13310750e-03 -1.70316088e-03 -4.57289284e-08  4.42714002e-03
  5.64560191e-04  8.61543743e-04  2.31080686e-08 -4.22917901e-03  7.53287447e-04
  1.11672940e-03  3.09186394e-08 -1.98985797e-04  8.77878485e-09  1.35849803e-08
 -1.38783248e-04  3.23424272e-04  2.00396188e-04 -8.71208855e-09 -1.27982687e-08
  1.32269767e-04 -3.11639160e-04 -8.21746940e-04  1.51454192e-04  3.32314680e-04
  8.16727477e-09  4.83999183e-02  4.00232989e-02  2.88773485e-04  5.65516902e-06
  1.68938592e-09  6.91896388e-04 -1.88494968e-04 -4.33049472e-05 -1.82087679e-09
 -6.09088274e-04 -5.73175756e-04  2.47609215e-04  1.24656674e-09 -5.80142183e-05
  9.73281310e-10 -1.44426042e-10  9.70217330e-05 -2.19864106e-06  1.23840948e-04
 -4.89578483e-09  1.77148559e-09 -4.57762585e-04 -4.01095563e-05 -5.00404182e-04
 -7.12421791e-05 -1.02369560e-04 -3.81261720e-09  5.60694237e-01  4.64330837e-01
  7.26935606e-04  6.95334452e-04  1.77317472e-08  5.16355624e-03 -1.08939771e-03
 -3.21325468e-04 -1.25678869e-08 -4.25091163e-03 -1.23969159e-03 -1.94982198e-03
 -5.39641457e-08 -4.29304868e-04  6.38222636e-09  1.44077267e-08  1.59146165e-04
  5.33294484e-05  3.81958529e-04 -1.06312722e-08 -2.78765330e-08  5.01691032e-04
 -4.30607077e-04  4.26236944e-03  4.50538554e-04  1.10048289e-03  3.03017702e-08
  1.53796561e-05 -2.59413356e-04 -8.52570181e-05 -7.61654248e-05  1.42236674e-05
 -2.05633170e-10  3.62358857e-07 -1.61556129e-04  7.55040107e-05 -7.62788849e-05
 -1.13181940e-05 -5.96394146e-10  3.70096291e-04  2.91377539e-04 -6.51532970e-05
 -8.33776107e-05  6.98767649e-05  2.83417322e-09  2.40740277e-02  1.98368753e-02
 -8.35245851e-05 -1.43456033e-04 -3.74070709e-09  8.42089675e-04 -5.01883070e-04
 -7.13963335e-04 -2.11658706e-08  2.87047569e-04 -2.25535357e-03 -3.34797539e-03
 -9.45853354e-08 -1.20585826e-04  5.36247945e-09  8.37775271e-09 -8.98056944e-05
  1.88598714e-04  1.70476012e-04 -4.10676264e-09 -9.28324432e-09  1.61610547e-04
 -2.18241775e-04 -4.55404974e-03  3.51008859e-04  5.89828983e-04  1.59278638e-08
 -1.48294171e-05 -1.15420044e-05  9.03083842e-06  9.38425604e-06  4.17612345e-10
 -4.05857523e-06 -9.75983378e-05 -1.28251417e-04 -4.29659140e-09  3.01295909e-03
 -5.45995828e-04 -8.02662338e-04 -2.28567750e-08  2.18496666e-06 -3.86368996e-11
 -1.07261601e-10 -1.41377626e-07 -5.07032272e-08 -2.64117524e-05  1.33467316e-09
  1.95825999e-09 -5.57865213e-06  2.97620604e-05  1.95320923e-03 -2.59843771e-04
 -4.54641392e-04 -1.13963481e-08  5.60675245e-01  4.64384685e-01 -2.28952952e-04
 -2.82519993e-05 -2.29604900e-09  4.40080894e-03  7.90495269e-04  1.34592703e-05
  6.05378890e-09 -3.54059504e-04  2.25224269e-04  6.56305255e-05  1.04009520e-09
 -4.17534894e-04  4.76758925e-09  6.84288903e-09  1.51985927e-04  5.72076159e-07
  5.12056433e-05 -5.17706589e-10 -4.68971885e-09  1.92156870e-04 -9.17165032e-05
  4.87735639e-04  2.36120726e-04  1.37400387e-05  2.15219990e-09 -4.74199527e-02
 -3.93497085e-02 -3.60600050e-04 -6.18078702e-05 -3.22714459e-09  1.41508662e-04
  8.08639752e-05  1.86336340e-06  4.02876417e-10 -2.45067269e-03 -2.99781308e-05
 -6.47054166e-04 -1.49638174e-08 -5.53765393e-06  7.81350525e-10 -2.22436520e-09
  1.12010934e-04  7.60046850e-07  2.93627199e-04 -9.82127270e-09  1.04749721e-10
 -4.93617094e-04 -1.76481398e-04  4.05600941e-03  5.70376250e-04  1.10126941e-03
  2.73797985e-08  4.01316014e-04  2.11606332e-04  1.51229089e-04  7.59996094e-05
 -7.85652145e-05  1.88022632e-10  4.10189747e-04  3.28757690e-04  2.10177959e-04
  5.85624953e-05  1.13531049e-04 -2.67212384e-10 -7.23492780e-05 -3.16806524e-05
 -9.14600224e-05  7.89018571e-05  2.03124023e-05  1.12659492e-09 -2.78678809e-02
 -2.30637744e-02  2.65288569e-05  6.82840700e-05  1.74088913e-09 -4.12390209e-04
 -5.65970662e-06 -1.31902597e-04 -3.21964416e-09  1.77764539e-04 -9.80366068e-04
 -1.49683902e-03 -4.22915151e-08  4.64342670e-05 -1.63816874e-09 -2.96405649e-09
  2.65145431e-05 -5.31611602e-05 -6.51924845e-05 -3.00995674e-09  8.03549035e-09
 -2.03756317e-04 -1.27815947e-04 -4.97918641e-03  8.71606420e-04  9.79899791e-04
  3.30200113e-08  2.20665513e-05  2.83007402e-05  1.11301090e-05  2.61490780e-05
  7.58118352e-10 -1.08732936e-04  1.18533838e-05 -5.17248457e-05 -1.68165611e-09
  1.24809588e-03 -1.09535813e-04 -4.18372439e-04 -1.03734627e-08 -4.73989226e-06
  6.60927089e-11 -1.54671746e-11  8.03356821e-06 -6.21599464e-08  1.55834030e-06
  1.41433971e-10  2.31619937e-09 -8.59955178e-05  1.57210280e-05  1.01791794e-03
 -3.31348876e-04 -2.81452603e-04 -1.04568873e-08  2.57319778e-02  2.13225531e-02
 -2.33416015e-06  7.73135553e-06  2.65115591e-10  1.42233898e-04 -8.16874054e-05
 -4.88264767e-05 -1.89808433e-09 -2.42843029e-04  2.91080810e-05 -2.33781448e-04
 -4.62910569e-09 -9.39313086e-06  1.40962207e-10 -1.95136414e-10  4.37159923e-06
  1.72281179e-06 -2.26639060e-05 -2.37176500e-09  8.57528790e-10 -1.28106351e-05
 -1.18293227e-04 -8.56349592e-05  5.19924709e-05 -4.86140183e-05  1.13467139e-10
 -2.65030162e-02 -2.20320232e-02  4.95856223e-05  1.30085957e-04  3.55994372e-09
 -8.85525655e-05  2.21159376e-04  2.42022246e-04  6.09514228e-09  3.41937827e-03
  7.07901929e-04  1.51390288e-03  4.12599015e-08 -4.04569385e-05  2.56462198e-09
  3.33618942e-09 -4.64245427e-05  1.03644637e-04 -1.44963634e-04 -1.60974672e-10
  7.58614787e-09 -7.29228033e-05 -5.02870818e-05  5.71546786e-03  5.24652848e-04
  1.12670253e-03  2.99249124e-08  8.53588033e-06 -3.12205037e-05  2.19548925e-04
  7.42360905e-06  1.67990618e-05  1.35170740e-10  2.48960258e-05  1.40194548e-05
 -4.54770292e-06 -1.26626283e-05  5.79035291e-06  6.65976857e-11 -2.61013440e-05
 -2.31807732e-04  2.54801361e-04 -8.03457592e-06 -7.74087648e-05 -2.16533026e-09
  5.61994742e-01  4.65505152e-01 -4.91168323e-04 -7.99771773e-04 -1.94376646e-08
  5.71432866e-03  1.41884621e-03  2.14255561e-03  5.73442064e-08  3.33149373e-03
  2.86165264e-03  4.32222383e-03  1.21134524e-07 -5.06592393e-04  2.17542827e-08
  3.31872880e-08 -3.40096423e-04  7.81492620e-04 -3.17765041e-04  1.40409956e-08
  2.21673151e-08 -2.74476661e-04  5.29548686e-04 -4.78396941e-03  1.57122886e-03
  2.29104752e-03  6.58929801e-08 -4.50254114e-04 -4.88573278e-04 -2.82873824e-04
 -4.27386498e-04 -1.19871787e-08  7.49949458e-04  2.31138150e-04  3.31550439e-04
  8.93821655e-09 -7.23777613e-03  1.87396939e-03  2.77802870e-03  7.60754770e-08
 -7.16407004e-05  3.22805187e-09  4.82977345e-09 -4.87751572e-05  1.16460870e-04
  3.81222320e-04 -1.73674552e-08 -2.51191379e-08  2.49887314e-04 -6.34395875e-04
 -2.14981964e-03 -2.37085235e-04 -3.10257999e-04 -1.00883223e-08  1.05509818e-02
  1.72637476e-02 -9.69027932e-03 -2.04919407e-03 -1.07886411e-07 -4.38184259e-02
 -1.45982958e-02 -2.46081636e-03 -1.43720497e-07 -1.19704270e-02 -4.89302941e-04
  2.01181749e-03  2.69886459e-08  1.38512389e-03 -3.19572040e-08 -1.30507244e-08
 -1.50165812e-03 -3.26925853e-04 -4.67479798e-04 -2.05224263e-09  6.13198482e-08
 -2.38509668e-03  2.50062951e-04 -1.92778978e-02 -3.31799095e-03  5.65630054e-04
 -1.94406937e-08  2.27597659e-02  3.74677764e-02 -3.52216487e-03 -1.38264747e-02
 -3.43285137e-07 -9.20671092e-02 -5.57198835e-03 -2.03650755e-02 -5.03744167e-07
 -2.55138059e-02  7.27530525e-03  4.84895326e-04  8.09346699e-08  3.12429907e-03
 -8.29060079e-08 -1.45971690e-07 -1.95674765e-05 -2.18780648e-03  3.37400362e-03
 -6.20443373e-08 -1.47157304e-07  3.30734820e-04 -1.44308814e-03  4.49132120e-02
 -2.92773365e-03  7.88776581e-03  1.50363729e-07 -5.67149332e-03 -8.74781143e-03
  7.04161258e-04 -1.34241518e-03  1.22960275e-03  2.22721081e-09 -4.35535118e-03
 -6.24704477e-03  3.59972092e-03 -7.57096050e-04 -1.04883739e-03 -6.62302675e-09
 -1.07875023e-02 -1.23096344e-02  8.65920466e-04  1.29442667e-03 -1.99717901e-03
 -4.60521569e-08  8.24968110e-02  1.34439588e-01 -4.88177863e-02 -7.39513165e-02
 -2.02155885e-06 -3.31939450e-01 -5.43563617e-02 -8.15952446e-02 -2.24074346e-06
 -1.10894513e-01  1.20972277e-02  2.01009467e-02  5.50255210e-07  1.15363623e-02
 -5.05578168e-07 -7.64951139e-07  7.76669498e-03 -1.82591032e-02  8.78802472e-03
 -3.71525351e-07 -5.84893897e-07  5.95584497e-03 -1.27885497e-02 -4.70330642e-02
  1.20907301e-03 -1.39530221e-03  2.26543160e-08  9.27383529e-02  1.52957525e-01
  4.76125191e-02  7.20990304e-02  1.99039896e-06 -4.04773267e-01  6.59126808e-02
  1.00034867e-01  2.76544673e-06 -2.81926585e-01  2.87469242e-02  4.32882401e-02
  1.20982318e-06  7.18785049e-03 -3.13832232e-07 -4.76122694e-07  4.87582909e-03
 -1.14444344e-02  7.36435131e-03 -3.19247054e-07 -4.94046123e-07  5.00369210e-03
 -1.15792726e-02  3.29838914e-02 -5.22712573e-03 -7.32794788e-03 -2.29688365e-07
  7.42353155e-02  1.22316453e-01 -5.01304639e-02 -1.95456220e-03 -4.00426263e-07
 -3.09732975e-01 -7.79300989e-02 -3.78607497e-03 -6.11082984e-07 -1.46712730e-01
 -1.49486646e-02  3.91647694e-03 -2.53570717e-08  9.10826088e-03 -1.55177256e-07
 -7.62194879e-08 -8.50465258e-03 -5.14927571e-04  2.36280764e-03 -1.23423840e-07
  7.24078040e-08 -1.02866661e-02 -1.92177952e-03 -8.40710433e-02 -1.04102896e-02
 -3.97221950e-03 -1.86666144e-07  8.56082488e-02  1.41327999e-01  3.97169655e-02
 -9.25606010e-03  4.56888112e-08 -3.54846215e-01  5.62169301e-02 -2.12321214e-02
 -1.48169968e-07 -2.07671959e-01  1.79483031e-02 -1.53084712e-02 -2.73857202e-07
  1.05215758e-02 -1.97770798e-07 -3.13351379e-07 -6.52298375e-03 -2.18833155e-03
  6.36361993e-03 -2.28175158e-07 -1.51401701e-07 -5.84511988e-03 -4.83381728e-03
  1.91992238e-01 -1.67667639e-02  3.94331247e-02  7.93942381e-07 -4.29498590e-02
 -6.39984844e-02  1.13249078e-02 -7.69752854e-03  9.85001814e-03  7.03248209e-08
 -4.23652361e-02 -5.93797490e-02  1.31097407e-02 -7.38099172e-03 -9.63320250e-03
 -1.08340827e-07 -4.92798230e-02 -7.08824328e-02  9.86439575e-03  7.83272546e-03
 -1.21186104e-02 -2.84299090e-07  9.26762442e-03  1.58388817e-02  4.65068542e-02
  6.53933334e-02  1.85511857e-06 -3.90771140e-02  7.05005121e-02  9.89547744e-02
  2.81279962e-06 -2.78050653e-02  3.49921380e-04  4.76432371e-03  1.36170584e-07
  9.27144922e-04 -5.45378469e-08 -6.19413750e-08  2.00602272e-04 -1.66539507e-03
  5.37463371e-03 -2.71792791e-07 -3.37105702e-07  1.58668713e-03 -8.83368075e-03
 -1.13519101e-01  2.94210457e-02  2.73637220e-02  9.67096298e-07 -3.01239355e-02
 -5.01176035e-02 -1.27459980e-02 -2.06747961e-02 -5.60307959e-07  1.37964034e-01
 -1.55919171e-02 -2.59905689e-02 -6.99005673e-07  9.30977675e-02 -1.42141223e-04
 -6.16551805e-03 -1.23741755e-07 -2.51172574e-03  1.09713878e-07  1.67616475e-07
 -1.78263846e-03  4.04128508e-03  8.24122862e-05 -2.91199032e-08  8.42347856e-09
 -8.14046800e-04 -7.60880748e-04  1.62660298e-03 -7.91466593e-03 -6.97296956e-03
 -2.83866460e-07  7.27618778e-02  1.21047798e-01  3.26258056e-02  9.84142732e-03
  2.23715122e-07 -3.12347624e-01  5.09939859e-02  1.54501587e-02  4.18006832e-07
 -2.12044605e-01  2.88764311e-02  4.30943304e-03  1.85973090e-07  7.52706588e-03
 -2.57064212e-08 -1.50034812e-07  2.11741080e-03  6.70367269e-04  4.24040040e-03
  8.33067878e-08 -1.38915069e-07  4.04133825e-03  5.55380863e-03  3.59044190e-02
  1.68219233e-02  1.18664419e-02  3.59583640e-07 -4.42578928e-02 -7.40155213e-02
  9.77895129e-02  3.69236524e-02  1.39790546e-06  1.90181442e-01  1.53441478e-01
  6.52864806e-02  2.39254677e-06  1.26166182e-01  5.77308224e-02  2.28477772e-02
  8.75119502e-07 -5.85105860e-03  1.48870224e-07  5.25878943e-07 -9.81916769e-03
  6.39650003e-03 -5.74682143e-03  3.20436212e-07  4.90947925e-07 -8.51544413e-03
  1.37623634e-02 -1.13305061e-04  9.15195333e-03 -5.30207334e-03 -1.97255917e-07
 -7.35671886e-02 -1.00855120e-01 -2.89560638e-03 -8.06233286e-03  1.44406422e-02
  1.28851923e-07 -8.31421663e-02 -1.22482963e-01  3.29250824e-03 -8.04696320e-03
 -1.72170426e-02 -1.71336618e-07  5.22965450e-02  8.34204154e-02 -7.28510244e-03
 -3.46629165e-03  1.34400476e-02  3.42559292e-07 -3.94742204e-02 -6.65494985e-02
 -4.71824386e-02 -9.11516203e-02 -2.49970650e-06  1.71794793e-01 -7.47702399e-02
 -1.43345938e-01 -3.93360051e-06  9.37553654e-02 -2.33383392e-02 -4.37257835e-02
 -1.20951268e-06 -3.89218362e-03  1.62393835e-07  3.10348877e-07 -4.23584707e-03
  5.73652864e-03 -5.78350592e-03  1.79909463e-07  5.11335044e-07 -8.24900975e-03
  6.25226372e-03 -5.09282629e-02  1.40497516e-02  6.62173554e-03  4.24107972e-07
  2.49535413e-02  4.19634149e-02  7.60193087e-03  4.84217428e-03  1.60970863e-07
 -1.19643207e-01  8.56563883e-03  7.86296178e-04  6.18701706e-08 -6.78401610e-02
 -3.03559709e-03 -1.66928435e-02 -3.98392186e-07  1.77034193e-03 -8.54461302e-08
 -1.07533821e-07  7.71418037e-04 -3.07584982e-03 -1.60362215e-03  5.41914949e-08
  1.63721472e-07 -3.42444722e-03  2.20866921e-03  1.30357520e-02 -3.96113762e-03
  3.33996237e-03 -2.30884407e-08  1.18872445e-02  1.99066329e-02  6.45138465e-02
 -9.78188723e-02 -1.17153321e-06 -5.28212467e-02  9.23273716e-02 -1.43853357e-01
 -1.79522749e-06 -5.33218593e-02  4.99049818e-02 -6.74868360e-02 -8.42367485e-07
  1.16892311e-03 -2.46992781e-08 -1.13499752e-07  5.79485547e-03  1.53158445e-03
  3.73504595e-05 -1.60296427e-07 -9.08641460e-08  2.41598020e-03 -1.00333979e-02
  1.73457620e-02  3.26614651e-03 -1.65249103e-02 -2.45260553e-07 -2.70264583e-02
 -4.51268653e-02 -1.52726694e-02 -1.48135999e-01 -3.62224442e-06  1.17874791e-01
 -2.76343219e-02 -2.27585884e-01 -5.58900222e-06  9.02422095e-02 -2.00908208e-03
 -1.09343176e-01 -2.55596421e-06 -1.28588004e-03 -2.43140909e-07 -8.79752727e-08
  4.84946569e-03 -1.03730160e-02  3.63805999e-03 -3.85106600e-08 -4.03292951e-07
  1.04393516e-02 -4.12436842e-03  1.38103636e-01  4.71782490e-02  4.06377801e-02
  1.14104030e-06 -9.85566796e-02 -1.62035359e-01 -8.67238921e-03 -1.01139133e-02
  1.64547052e-02  1.22054094e-07  2.40794506e-02  4.34568609e-02  4.55128972e-03
  5.09086176e-03  2.05953269e-03  1.08875323e-08  1.17634653e-01  1.88619500e-01
  1.56221188e-02 -1.49776177e-02  1.70425580e-02  4.03145120e-07  3.82979164e-02
  6.50961248e-02  5.61651889e-02  4.86137262e-02  1.55125093e-06 -1.75378543e-01
  8.98617720e-02  7.98737635e-02  2.52077537e-06 -1.08151759e-01  3.43390231e-02
  3.01170144e-02  9.58334509e-07  3.23807358e-03 -1.70776281e-07 -2.04210608e-07
  1.20039707e-03 -5.74034021e-03  9.52011458e-04 -1.30409032e-07 -5.81493771e-09
 -2.53173104e-03 -2.84886300e-03 -1.51786222e-01  1.51087417e-02  4.59275826e-02
  1.30126662e-06 -2.16856846e-02 -3.66014093e-02  1.58548646e-02  4.89437280e-03
  2.21660950e-07  1.04606477e-01  2.82653049e-02  1.01863692e-02  4.28657332e-07
  7.80423726e-02  2.69466482e-02  1.67594027e-02  5.77927486e-07 -5.85075794e-04
  5.93035675e-09  6.21515557e-08 -1.56063452e-03  4.72048925e-04  1.99741115e-03
 -1.40781417e-07 -6.33939903e-08 -2.26784390e-03 -4.43123076e-03  5.35776278e-03
 -3.73357291e-03 -1.00332270e-02 -3.09538384e-07  4.54406356e-03  6.95193454e-03
  1.75102543e-01  6.17545573e-02  1.60162950e-06 -6.18994557e-03  2.62091516e-01
  8.98746161e-02  2.35226384e-06 -7.04092017e-02  1.27699105e-01  4.39261634e-02
  1.14818350e-06 -1.88811269e-04  1.18419424e-07 -1.85275332e-07  1.75141133e-02
 -2.40100302e-03  4.17278268e-03 -5.59425138e-08 -2.56120615e-07  6.90599715e-03
 -5.22829642e-03  1.00432187e-03  1.08784378e-04 -5.80614977e-03 -1.56378535e-07
 -1.60695176e-02 -2.75725224e-02 -1.58141464e-01  2.82381643e-02 -4.75625194e-07
  8.11348160e-02 -2.41258574e-01  3.99515765e-02 -8.59127106e-07  2.47259526e-02
 -1.08838966e-01  3.49085265e-02 -4.07806943e-08 -1.18738727e-03  7.35092316e-08
 -2.99898014e-07  1.32553353e-02 -3.12370304e-03  4.50029755e-03 -3.51755694e-07
 -1.12238429e-07 -4.08721745e-03 -1.70678286e-02  1.11053593e-01  2.98679193e-02
  3.63522979e-02  1.02664161e-06 -3.97619127e-02 -6.12403895e-02 -7.40325031e-03
  2.91187325e-03  9.53387065e-03  1.37906543e-07 -1.19471982e-01 -1.87475488e-01
 -4.12446654e-02 -6.59682141e-03 -1.89054552e-02 -1.79317428e-07 -6.57034097e-02