Generated by Psi4
        SP                           RHF                 6-311+G(2D,P)
Number of atoms                            I                8
Charge                                     I                0
Multiplicity                               I                1
Number of electrons                        I               40
Number of alpha electrons                  I               20
Number of beta electrons                   I               20
Number of basis functions                  I              174
Number of independent functions            I              174
Atomic numbers                             I   N=           8
           6           6           6           7           6           7
           1           1
Nuclear charges                            R   N=           8
  6.00000000e+00  6.00000000e+00  6.00000000e+00  7.00000000e+00  6.00000000e+00
  7.00000000e+00  1.00000000e+00  1.00000000e+00
Current cartesian coordinates              R   N=          24
 -3.42568176e+00  3.94115834e-05 -3.88694443e-06 -8.81312220e-01  1.05462596e-05
  4.07180481e-05  5.45378782e-01  2.31457462e+00  6.22447206e-05  1.70025519e+00
  4.18208176e+00  8.16874143e-05  5.45325789e-01 -2.31458656e+00 -4.93305728e-05
  1.70015714e+00 -4.18212173e+00 -1.20295647e-04 -4.47533641e+00  1.75997585e+00
  1.67563898e-05 -4.47537642e+00 -1.75987317e+00 -7.26282621e-05
Integer atomic weights                     I   N=           8
          12          12          12          14          12          14
           1           1
Real atomic weights                        R   N=           8
  1.20000000e+01  1.20000000e+01  1.20000000e+01  1.40030740e+01  1.20000000e+01
  1.40030740e+01  1.00782503e+00  1.00782503e+00
Number of primitive shells                 I              132
Number of contracted shells                I               74
Pure/Cartesian d shells                    I                0
Pure/Cartesian f shells                    I                0
Highest angular momentum                   I                2
Largest degree of contraction              I                6
Shell types                                I   N=          74
           0           0           1           0           1           0
           1          -2          -2           0           1           0
           0           1           0           1           0           1
          -2          -2           0           1           0           0
           1           0           1           0           1          -2
          -2           0           1           0           0           1
           0           1           0           1          -2          -2
           0           1           0           0           1           0
           1           0           1          -2          -2           0
           1           0           0           1           0           1
           0           1          -2          -2           0           1
           0           0           0           1           0           0
           0           1
Number of primitives per shell             I   N=          74
           6           3           3           1           1           1
           1           1           1           1           1           6
           3           3           1           1           1           1
           1           1           1           1           6           3
           3           1           1           1           1           1
           1           1           1           6           3           3
           1           1           1           1           1           1
           1           1           6           3           3           1
           1           1           1           1           1           1
           1           6           3           3           1           1
           1           1           1           1           1           1
           3           1           1           1           3           1
           1           1
Shell to atom map                          I   N=          74
           1           1           1           1           1           1
           1           1           1           1           1           2
           2           2           2           2           2           2
           2           2           2           2           3           3
           3           3           3           3           3           3
           3           3           3           4           4           4
           4           4           4           4           4           4
           4           4           5           5           5           5
           5           5           5           5           5           5
           5           6           6           6           6           6
           6           6           6           6           6           6
           7           7           7           7           8           8
           8           8
Primitive exponents                        R   N=         132
  4.56324000e+03  6.82024000e+02  1.54973000e+02  4.44553000e+01  1.30290000e+01
  1.82773000e+00  2.09642000e+01  4.80331000e+00  1.45933000e+00  2.09642000e+01
  4.80331000e+00  1.45933000e+00  4.83456000e-01  4.83456000e-01  1.45585000e-01
  1.45585000e-01  1.25200000e+00  3.13000000e-01  4.38000000e-02  4.38000000e-02
  4.56324000e+03  6.82024000e+02  1.54973000e+02  4.44553000e+01  1.30290000e+01
  1.82773000e+00  2.09642000e+01  4.80331000e+00  1.45933000e+00  2.09642000e+01
  4.80331000e+00  1.45933000e+00  4.83456000e-01  4.83456000e-01  1.45585000e-01
  1.45585000e-01  1.25200000e+00  3.13000000e-01  4.38000000e-02  4.38000000e-02
  4.56324000e+03  6.82024000e+02  1.54973000e+02  4.44553000e+01  1.30290000e+01
  1.82773000e+00  2.09642000e+01  4.80331000e+00  1.45933000e+00  2.09642000e+01
  4.80331000e+00  1.45933000e+00  4.83456000e-01  4.83456000e-01  1.45585000e-01
  1.45585000e-01  1.25200000e+00  3.13000000e-01  4.38000000e-02  4.38000000e-02
  6.29348000e+03  9.49044000e+02  2.18776000e+02  6.36916000e+01  1.88282000e+01
  2.72023000e+00  3.06331000e+01  7.02614000e+00  2.11205000e+00  3.06331000e+01
  7.02614000e+00  2.11205000e+00  6.84009000e-01  6.84009000e-01  2.00878000e-01
  2.00878000e-01  1.82600000e+00  4.56500000e-01  6.39000000e-02  6.39000000e-02
  4.56324000e+03  6.82024000e+02  1.54973000e+02  4.44553000e+01  1.30290000e+01
  1.82773000e+00  2.09642000e+01  4.80331000e+00  1.45933000e+00  2.09642000e+01
  4.80331000e+00  1.45933000e+00  4.83456000e-01  4.83456000e-01  1.45585000e-01
  1.45585000e-01  1.25200000e+00  3.13000000e-01  4.38000000e-02  4.38000000e-02
  6.29348000e+03  9.49044000e+02  2.18776000e+02  6.36916000e+01  1.88282000e+01
  2.72023000e+00  3.06331000e+01  7.02614000e+00  2.11205000e+00  3.06331000e+01
  7.02614000e+00  2.11205000e+00  6.84009000e-01  6.84009000e-01  2.00878000e-01
  2.00878000e-01  1.82600000e+00  4.56500000e-01  6.39000000e-02  6.39000000e-02
  3.38650000e+01  5.09479000e+00  1.15879000e+00  3.25840000e-01  1.02741000e-01
  7.50000000e-01  3.38650000e+01  5.09479000e+00  1.15879000e+00  3.25840000e-01
  1.02741000e-01  7.50000000e-01
Contraction coefficients                   R   N=         132
  1.96665025e-03  1.52306019e-02  7.61269097e-02  2.60801033e-01  6.16462078e-01
  2.21006028e-01  1.14660081e-01  9.19999648e-01 -3.03068213e-03  4.02486927e-02
  2.37593957e-01  8.15853851e-01  1.00000000e+00  1.00000000e+00  1.00000000e+00
  1.00000000e+00  1.00000000e+00  1.00000000e+00  1.00000000e+00  1.00000000e+00
  1.96665025e-03  1.52306019e-02  7.61269097e-02  2.60801033e-01  6.16462078e-01
  2.21006028e-01  1.14660081e-01  9.19999648e-01 -3.03068213e-03  4.02486927e-02
  2.37593957e-01  8.15853851e-01  1.00000000e+00  1.00000000e+00  1.00000000e+00
  1.00000000e+00  1.00000000e+00  1.00000000e+00  1.00000000e+00  1.00000000e+00
  1.96665025e-03  1.52306019e-02  7.61269097e-02  2.60801033e-01  6.16462078e-01
  2.21006028e-01  1.14660081e-01  9.19999648e-01 -3.03068213e-03  4.02486927e-02
  2.37593957e-01  8.15853851e-01  1.00000000e+00  1.00000000e+00  1.00000000e+00
  1.00000000e+00  1.00000000e+00  1.00000000e+00  1.00000000e+00  1.00000000e+00
  1.96978815e-03  1.49612859e-02  7.35005308e-02  2.48936766e-01  6.02459433e-01
  2.56201759e-01  1.11906080e-01  9.21666655e-01 -2.56919183e-03  3.83119186e-02
  2.37403116e-01  8.17592398e-01  1.00000000e+00  1.00000000e+00  1.00000000e+00
  1.00000000e+00  1.00000000e+00  1.00000000e+00  1.00000000e+00  1.00000000e+00
  1.96665025e-03  1.52306019e-02  7.61269097e-02  2.60801033e-01  6.16462078e-01
  2.21006028e-01  1.14660081e-01  9.19999648e-01 -3.03068213e-03  4.02486927e-02
  2.37593957e-01  8.15853851e-01  1.00000000e+00  1.00000000e+00  1.00000000e+00
  1.00000000e+00  1.00000000e+00  1.00000000e+00  1.00000000e+00  1.00000000e+00
  1.96978815e-03  1.49612859e-02  7.35005308e-02  2.48936766e-01  6.02459433e-01
  2.56201759e-01  1.11906080e-01  9.21666655e-01 -2.56919183e-03  3.83119186e-02
  2.37403116e-01  8.17592398e-01  1.00000000e+00  1.00000000e+00  1.00000000e+00
  1.00000000e+00  1.00000000e+00  1.00000000e+00  1.00000000e+00  1.00000000e+00
  2.54938145e-02  1.90373109e-01  8.52161486e-01  1.00000000e+00  1.00000000e+00
  1.00000000e+00  2.54938145e-02  1.90373109e-01  8.52161486e-01  1.00000000e+00
  1.00000000e+00  1.00000000e+00
Coordinates of each shell                  R   N=         222
 -3.42568176e+00  3.94115834e-05 -3.88694443e-06 -3.42568176e+00  3.94115834e-05
 -3.88694443e-06 -3.42568176e+00  3.94115834e-05 -3.88694443e-06 -3.42568176e+00
  3.94115834e-05 -3.88694443e-06 -3.42568176e+00  3.94115834e-05 -3.88694443e-06
 -3.42568176e+00  3.94115834e-05 -3.88694443e-06 -3.42568176e+00  3.94115834e-05
 -3.88694443e-06 -3.42568176e+00  3.94115834e-05 -3.88694443e-06 -3.42568176e+00
  3.94115834e-05 -3.88694443e-06 -3.42568176e+00  3.94115834e-05 -3.88694443e-06
 -3.42568176e+00  3.94115834e-05 -3.88694443e-06 -8.81312220e-01  1.05462596e-05
  4.07180481e-05 -8.81312220e-01  1.05462596e-05  4.07180481e-05 -8.81312220e-01
  1.05462596e-05  4.07180481e-05 -8.81312220e-01  1.05462596e-05  4.07180481e-05
 -8.81312220e-01  1.05462596e-05  4.07180481e-05 -8.81312220e-01  1.05462596e-05
  4.07180481e-05 -8.81312220e-01  1.05462596e-05  4.07180481e-05 -8.81312220e-01
  1.05462596e-05  4.07180481e-05 -8.81312220e-01  1.05462596e-05  4.07180481e-05
 -8.81312220e-01  1.05462596e-05  4.07180481e-05 -8.81312220e-01  1.05462596e-05
  4.07180481e-05  5.45378782e-01  2.31457462e+00  6.22447206e-05  5.45378782e-01
  2.31457462e+00  6.22447206e-05  5.45378782e-01  2.31457462e+00  6.22447206e-05
  5.45378782e-01  2.31457462e+00  6.22447206e-05  5.45378782e-01  2.31457462e+00
  6.22447206e-05  5.45378782e-01  2.31457462e+00  6.22447206e-05  5.45378782e-01
  2.31457462e+00  6.22447206e-05  5.45378782e-01  2.31457462e+00  6.22447206e-05
  5.45378782e-01  2.31457462e+00  6.22447206e-05  5.45378782e-01  2.31457462e+00
  6.22447206e-05  5.45378782e-01  2.31457462e+00  6.22447206e-05  1.70025519e+00
  4.18208176e+00  8.16874143e-05  1.70025519e+00  4.18208176e+00  8.16874143e-05
  1.70025519e+00  4.18208176e+00  8.16874143e-05  1.70025519e+00  4.18208176e+00
  8.16874143e-05  1.70025519e+00  4.18208176e+00  8.16874143e-05  1.70025519e+00
  4.18208176e+00  8.16874143e-05  1.70025519e+00  4.18208176e+00  8.16874143e-05
  1.70025519e+00  4.18208176e+00  8.16874143e-05  1.70025519e+00  4.18208176e+00
  8.16874143e-05  1.70025519e+00  4.18208176e+00  8.16874143e-05  1.70025519e+00
  4.18208176e+00  8.16874143e-05  5.45325789e-01 -2.31458656e+00 -4.93305728e-05
  5.45325789e-01 -2.31458656e+00 -4.93305728e-05  5.45325789e-01 -2.31458656e+00
 -4.93305728e-05  5.45325789e-01 -2.31458656e+00 -4.93305728e-05  5.45325789e-01
 -2.31458656e+00 -4.93305728e-05  5.45325789e-01 -2.31458656e+00 -4.93305728e-05
  5.45325789e-01 -2.31458656e+00 -4.93305728e-05  5.45325789e-01 -2.31458656e+00
 -4.93305728e-05  5.45325789e-01 -2.31458656e+00 -4.93305728e-05  5.45325789e-01
 -2.31458656e+00 -4.93305728e-05  5.45325789e-01 -2.31458656e+00 -4.93305728e-05
  1.70015714e+00 -4.18212173e+00 -1.20295647e-04  1.70015714e+00 -4.18212173e+00
 -1.20295647e-04  1.70015714e+00 -4.18212173e+00 -1.20295647e-04  1.70015714e+00
 -4.18212173e+00 -1.20295647e-04  1.70015714e+00 -4.18212173e+00 -1.20295647e-04
  1.70015714e+00 -4.18212173e+00 -1.20295647e-04  1.70015714e+00 -4.18212173e+00
 -1.20295647e-04  1.70015714e+00 -4.18212173e+00 -1.20295647e-04  1.70015714e+00
 -4.18212173e+00 -1.20295647e-04  1.70015714e+00 -4.18212173e+00 -1.20295647e-04
  1.70015714e+00 -4.18212173e+00 -1.20295647e-04 -4.47533641e+00  1.75997585e+00
  1.67563898e-05 -4.47533641e+00  1.75997585e+00  1.67563898e-05 -4.47533641e+00
  1.75997585e+00  1.67563898e-05 -4.47533641e+00  1.75997585e+00  1.67563898e-05
 -4.47537642e+00 -1.75987317e+00 -7.26282621e-05 -4.47537642e+00 -1.75987317e+00
 -7.26282621e-05 -4.47537642e+00 -1.75987317e+00 -7.26282621e-05 -4.47537642e+00
 -1.75987317e+00 -7.26282621e-05
Total Energy                               R     -2.615550847208355e+02
Alpha Orbital Energies                     R   N=         174
 -1.56100090e+01 -1.56100086e+01 -1.13585287e+01 -1.13332234e+01 -1.13137063e+01
 -1.13136904e+01 -1.26195463e+00 -1.24523878e+00 -1.15513826e+00 -9.49826847e-01
 -8.31271045e-01 -7.19370019e-01 -6.47906440e-01 -5.95143318e-01 -5.84265485e-01
 -5.80848083e-01 -5.08856257e-01 -5.03781576e-01 -4.91698251e-01 -4.18782958e-01
  1.81702416e-02  4.58515473e-02  6.96603949e-02  7.04817572e-02  9.16284930e-02
  1.03086311e-01  1.03410645e-01  1.24603804e-01  1.35878700e-01  1.40461675e-01
  1.41416591e-01  1.57110638e-01  1.69981670e-01  1.70968981e-01  1.86624245e-01
  1.97993889e-01  2.02160349e-01  2.07582539e-01  2.50035452e-01  2.59394815e-01
  2.75857068e-01  2.80723887e-01  2.85474579e-01  3.01619107e-01  3.04031247e-01
  3.04622817e-01  3.19602685e-01  3.35537989e-01  3.39060017e-01  3.47823024e-01
  3.54348920e-01  3.84486322e-01  4.74894997e-01  4.83844009e-01  5.97352887e-01
  6.23710462e-01  6.61888128e-01  6.70169115e-01  6.77343633e-01  6.83557808e-01
  6.99523062e-01  7.26595627e-01  7.37397152e-01  7.53095219e-01  7.62460785e-01
  7.98885677e-01  8.00153350e-01  8.13437920e-01  8.17109508e-01  8.40962403e-01
  8.66107697e-01  8.73869329e-01  8.89425628e-01  9.60083422e-01  9.66481568e-01
  9.84897338e-01  9.90294009e-01  1.00382166e+00  1.01543103e+00  1.03688969e+00
  1.05520180e+00  1.06205089e+00  1.07773649e+00  1.08452746e+00  1.11601598e+00
  1.14693097e+00  1.20838762e+00  1.28645728e+00  1.29183020e+00  1.30194254e+00
  1.33542160e+00  1.39837282e+00  1.42542844e+00  1.43156232e+00  1.49655396e+00
  1.57298914e+00  1.58261991e+00  1.60909522e+00  1.60948922e+00  1.61413459e+00
  1.61977447e+00  1.76522236e+00  1.78007117e+00  1.85695208e+00  1.90298856e+00
  2.00642976e+00  2.01029115e+00  2.16093569e+00  2.25195173e+00  2.28581249e+00
  2.29977059e+00  2.30660564e+00  2.31387076e+00  2.36148337e+00  2.50024798e+00
  2.52864464e+00  2.66731492e+00  2.71105920e+00  3.05954570e+00  3.08531324e+00
  3.13073832e+00  3.19310506e+00  3.19691974e+00  3.27637325e+00  3.32454990e+00
  3.33237121e+00  3.43182846e+00  3.45918257e+00  3.47024046e+00  3.48048892e+00
  3.55347652e+00  3.59853430e+00  3.60295839e+00  3.62092763e+00  3.63878644e+00
  3.68842084e+00  3.70951464e+00  3.71478560e+00  3.79163201e+00  3.85598771e+00
  3.91482229e+00  3.91521665e+00  3.94144688e+00  3.96626946e+00  3.98245200e+00
  4.13066557e+00  4.14426387e+00  4.17665082e+00  4.27707777e+00  4.42576157e+00
  4.49171452e+00  4.51636147e+00  4.57476592e+00  4.68636426e+00  4.70488323e+00
  4.94509241e+00  5.13542121e+00  5.22656042e+00  5.22824332e+00  5.23040309e+00
  5.25193138e+00  5.32889853e+00  5.53180422e+00  5.57289660e+00  5.57951683e+00
  5.62421000e+00  6.14095694e+00  6.14755387e+00  2.48864978e+01  2.52066023e+01
  2.53086069e+01  2.53487907e+01  3.72204852e+01  3.72706958e+01
Alpha MO coefficients                      R   N=       30276
  7.11143437e-09 -7.04325499e-08 -8.61553648e-08 -4.48063804e-06 -1.14798653e-10
 -4.77434946e-08 -8.85808559e-07  3.03363658e-05  7.18062016e-10 -5.01413576e-06
 -3.18760965e-06 -2.87169754e-04 -7.35178942e-09  1.78988329e-08  5.84031799e-11
  4.42011872e-10 -3.93183948e-07  2.95937613e-06 -3.72542403e-07  2.67470851e-09
  1.90899182e-09 -6.74611126e-07  1.07375247e-04  3.88943804e-05  6.13276164e-06
  2.05926880e-04  5.22253601e-09 -2.21548458e-08 -8.40666738e-08  8.59236569e-07
 -4.23924130e-05 -1.03655447e-09  6.80612542e-06 -3.75781966e-06  1.83330950e-04
  4.47743904e-09 -1.17543471e-04 -3.61229102e-05  2.14228701e-03  5.24204246e-08
 -1.18713454e-07 -2.03439970e-10  3.84502718e-10 -1.57242960e-07 -8.76911779e-06
  5.19726094e-06  9.53462444e-09 -8.09774552e-09  6.51815875e-06  3.90875381e-04
  7.16220281e-05  3.91820297e-05 -2.73690101e-03 -6.61408912e-08  6.75695649e-05
 -8.04753967e-05  6.97266986e-05  1.12737161e-04  1.15000391e-09  8.31432802e-04
  4.59118590e-04  7.41765586e-04  7.41936269e-09  4.08916970e-04  1.43055474e-03
  2.16741235e-03  1.64963356e-08 -7.69203686e-05  9.59708195e-10  2.13773700e-09
 -5.59514491e-05  1.12456647e-04 -3.55746495e-05  8.61631932e-10 -4.78953712e-10
  2.19511008e-05  8.06308856e-05  4.39351164e-03 -8.41866043e-04 -7.62420700e-04
  1.19330329e-08  3.83451094e-01  3.21991935e-01 -7.67930609e-04 -1.22323426e-03
 -1.36735800e-08  3.01738292e-03  3.89296317e-04  6.22570319e-04  6.34067298e-09
 -2.90098204e-03  3.97479889e-04  7.86697330e-04  1.22491382e-08 -1.36016829e-04
  2.50468089e-09  3.34267917e-09 -1.13151871e-04  2.16696162e-04  1.39422553e-04
 -2.36049423e-09 -5.06908308e-09  1.23894873e-04 -1.92326778e-04 -6.94536810e-04
  2.71133330e-04  2.67587000e-04 -4.54068185e-09 -7.14197343e-05  8.51150351e-05
 -7.33237191e-05  1.18661840e-04  4.52507780e-09 -8.79370596e-04 -4.86819426e-04
  7.85982508e-04  3.01687679e-08 -4.63647033e-04 -1.50951879e-03  2.30287213e-03
  9.32415378e-08  8.12115855e-05  4.73887031e-09 -7.43782144e-09  5.94907310e-05
  1.19407129e-04  3.93892149e-05  3.14946939e-09 -2.82144787e-09 -1.66531847e-05
  8.36387238e-05 -4.51620158e-03  8.48347722e-04 -7.94316759e-04 -5.00460074e-08
 -4.05078192e-01 -3.40152632e-01  8.11372628e-04 -1.29247321e-03 -4.82357180e-08
 -3.18865414e-03 -4.12252904e-04  6.58967186e-04  2.52042956e-08  3.08727433e-03
 -4.31729711e-04  8.35098183e-04  2.77934340e-08  1.43623713e-04  8.46286151e-09
 -1.42573704e-08  1.19161645e-04  2.29034793e-04 -1.47983988e-04 -7.46910148e-09
  1.34255417e-08 -1.28776276e-04 -2.05574588e-04  7.34415155e-04 -2.77767063e-04
  2.84538473e-04  1.81724482e-08 -3.54891721e-06  1.03695589e-04  9.52607545e-05
 -1.11901789e-05 -1.66322794e-05 -7.09715057e-10  3.72966618e-06 -1.06812233e-04
 -9.68822799e-05  1.03519178e-05 -1.67838614e-05 -1.68430620e-10  2.59281064e-07
 -2.56791885e-06 -3.14002286e-06  1.22905401e-07 -9.60709637e-11 -1.73914856e-06
 -3.23075166e-05 -8.31597713e-07 -5.05580072e-10 -1.82786590e-04 -1.16094887e-04
  7.87775420e-06 -8.00697016e-09  6.52442806e-07 -2.40427505e-11  2.98477121e-10
 -1.43388186e-05 -8.08472821e-08 -1.35798807e-05 -1.30119195e-09  1.21344227e-09
 -2.46846836e-05 -2.94440820e-06  1.41797064e-03  2.23489080e-04 -5.65027392e-06
  1.53694565e-08 -8.07848310e-07 -3.06466874e-06  3.13478122e-05  1.16232659e-06
 -5.36271279e-10  2.48149504e-04 -1.37100257e-04 -5.02671780e-06  2.57549805e-09
 -4.28574886e-03 -1.31791388e-03 -5.87442627e-05  2.84069288e-08 -4.32808689e-06
  5.54253494e-11  3.06628366e-10 -5.72649310e-06  2.40622603e-07  1.89494060e-04
  3.08704027e-09 -1.34569781e-08  2.37328185e-04 -1.07261243e-05  2.61140534e-03
  1.42964886e-03  7.50493325e-05 -1.73037064e-08 -7.20956072e-05  8.68514899e-05
 -6.75891467e-05 -1.11149827e-04 -1.26414562e-09 -8.97378637e-04 -5.18306061e-04
 -8.26818785e-04 -7.99357338e-09 -1.00971102e-03 -1.48086174e-03 -2.53013365e-03
 -2.73353598e-08  8.03979097e-05 -1.55261444e-09 -2.08220194e-09  6.59987001e-05
 -1.29939942e-04  7.05656523e-05 -1.13288710e-09 -4.26612307e-09  9.59726994e-05
 -5.70723696e-05 -2.35880446e-03  1.41677876e-04  6.02446121e-04  8.14777883e-09
 -4.05078178e-01 -3.40152087e-01  8.14186465e-04  1.29637365e-03  1.46564120e-08
 -3.20741234e-03 -4.29784750e-04 -6.80909843e-04 -7.58357480e-09  3.47829079e-03
 -6.36126931e-04 -9.04413013e-04 -7.50191625e-09  1.42510125e-04 -2.50874554e-09
 -3.19652110e-09  1.12544558e-04 -2.31153364e-04 -1.60017480e-04  1.90734903e-09
  3.77254071e-09 -9.22714125e-05  2.47080799e-04  7.46601504e-04 -1.28590010e-04
 -3.16481757e-04 -4.38923356e-09 -6.82835025e-05  8.23098483e-05 -6.36629987e-05
  1.04804781e-04  3.88046055e-09 -8.50455816e-04 -4.92342390e-04  7.84928988e-04
  3.03690629e-08 -9.85782713e-04 -1.40016335e-03  2.40755881e-03  8.99451098e-08
  7.60608056e-05  4.48258941e-09 -7.45484688e-09  6.28385817e-05  1.23577450e-04
  6.85098064e-05  1.52793516e-09 -6.24388863e-09  9.70346746e-05  5.25625597e-05
 -2.11443502e-03  9.53062934e-05 -5.59752162e-04 -1.83329742e-08 -3.83451079e-01
 -3.21991358e-01  7.70839893e-04 -1.22739430e-03 -4.56504654e-08 -3.03719790e-03
 -4.07784473e-04  6.45771250e-04  2.40818016e-08  3.31404891e-03 -6.13362638e-04
  8.59946657e-04  3.47846442e-08  1.34840337e-04  8.24420823e-09 -1.33962319e-08
  1.06183651e-04  2.18922912e-04 -1.52134695e-04 -9.64015888e-09  1.34306109e-08
 -8.53530877e-05 -2.36163167e-04  7.07408856e-04 -1.13527651e-04  3.01341564e-04
  1.00572912e-08  3.39520526e-06 -5.97023289e-05 -3.21997001e-05 -1.49791202e-05
  3.21703068e-06 -1.37280925e-10  3.19559899e-06 -5.39288130e-05 -2.69293343e-05
 -1.55700057e-05 -2.30016062e-06 -3.04477270e-10  1.76959054e-02  1.46000933e-02
  3.06389182e-04 -3.46303686e-09  4.97249903e-09  3.56755055e-04 -3.87150170e-04
  4.30932761e-09 -1.04122794e-08 -1.19022135e-03 -9.96930268e-04  1.12642274e-08
 -2.91673970e-08 -3.11652818e-05  2.29349214e-09 -5.63021087e-10  7.63412885e-05
 -1.73565987e-09  9.74342632e-05 -1.73059011e-08  1.07172804e-08 -5.90661031e-04
  1.31282133e-08 -7.84845302e-04 -1.30358550e-04  1.02147283e-09  1.31133957e-08
  5.62995167e-01  4.66173443e-01  1.10917342e-03 -1.27831303e-08 -4.02789275e-09
  5.58417983e-03 -1.30454144e-03  1.52667616e-08 -2.84913246e-08 -5.65111769e-03
 -2.27696475e-03  2.47954583e-08  4.55359240e-08 -4.18517383e-04  8.16769189e-09
  1.46599868e-08  1.19646177e-04 -2.49062645e-09  5.07382784e-04  7.41883577e-09
 -4.30471508e-08  8.84288862e-04 -2.05922902e-08  3.49911636e-03  2.04765301e-04
 -7.51832368e-10 -6.49717849e-08  5.39434756e-03  4.36972999e-03 -5.67595773e-05
 -1.13235802e-04 -1.74150696e-09  6.32284328e-04 -5.35166035e-04 -7.16241359e-04
 -4.91852324e-09 -3.07977461e-04 -1.70220712e-03 -2.85821399e-03 -3.31474615e-08
 -9.81087512e-05  1.01027901e-09  2.17541761e-09 -7.14402335e-05  1.49975717e-04
  1.84727779e-04 -9.88719913e-09 -1.82769080e-08  2.40847921e-04 -2.18193950e-04
 -1.93628297e-03  3.46311766e-05  1.40532974e-04  2.67278604e-08  1.62269058e-08
  2.18873179e-06  1.76036952e-05  2.36810465e-05 -1.32424829e-10  8.65753422e-07
 -1.05455989e-04 -1.37910338e-04  5.10402671e-10  2.82778725e-03 -5.42969846e-04
 -7.79394802e-04  3.00708356e-09  3.43788847e-06  1.64946304e-10  4.36529153e-10
  1.68947353e-06 -4.61129602e-06 -3.39680110e-05 -1.99570501e-09 -3.92275753e-09
 -9.02287004e-06  5.44304967e-05  1.45719015e-03 -1.41885424e-04 -3.15052116e-04
 -1.43766322e-08  5.39434624e-03  4.36972891e-03 -5.67568506e-05  1.13237015e-04
  3.75659474e-09  6.32283790e-04 -5.35149438e-04  7.16253591e-04  2.94775976e-08
 -3.07977781e-04 -1.70213889e-03  2.85825284e-03  1.04797450e-07 -9.81087278e-05
 -6.21881049e-09  9.46754315e-09 -7.14471557e-05 -1.49972393e-04  1.84727488e-04
  1.11941045e-09 -9.45819305e-09  2.40858155e-04  2.18182337e-04 -1.93627553e-03
  3.46285227e-05 -1.40531590e-04  1.96414738e-08  1.62290716e-08  2.18873620e-06
  1.76031178e-05 -2.36814661e-05 -1.24983784e-09  8.65665918e-07 -1.05452661e-04
  1.37912810e-04  7.04662216e-09  2.82778601e-03 -5.42949927e-04  7.79408249e-04
  4.04885178e-08  3.43788402e-06  3.87314708e-10 -7.95361049e-10  1.68976758e-06
  4.61118700e-06 -3.39679928e-05 -4.55941637e-09  7.05042900e-09 -9.02590861e-06
 -5.44299329e-05  1.45718864e-03 -1.41878230e-04  3.15054760e-04  1.18608569e-09
 -2.10140393e-05 -3.03771362e-04 -6.69279020e-05 -9.83918351e-05  3.05847675e-05
 -1.29434041e-09 -2.10140098e-05 -3.03771194e-04 -6.69279805e-05 -9.83926058e-05
 -3.05824687e-05 -2.89947789e-09  5.63083801e-01  4.66370699e-01 -5.74619110e-05
  7.12306772e-10  1.83245712e-08  4.48645411e-03  6.76775110e-04 -7.74601564e-09
  2.56952002e-09 -1.38906218e-03 -1.94701483e-04  2.35487141e-09  2.83364452e-09
 -4.33818941e-04  1.48228581e-08  1.54746923e-08  1.38133670e-04 -3.13537253e-09
  8.15930131e-05  4.53161945e-10 -6.23697458e-09  1.09716351e-04 -2.55228105e-09
 -1.69973879e-03 -1.84630336e-04  1.82056224e-09 -1.45102559e-10 -1.79110273e-02
 -1.49247088e-02 -3.23182107e-04  3.67876991e-09 -4.52932224e-09  5.07206022e-04
 -2.79890597e-05  3.48252790e-10  2.07310440e-10 -2.72102477e-03 -1.08521175e-03
  1.09900077e-08  1.13740216e-08 -3.75226812e-05  2.63595842e-09 -1.97755159e-09
  1.46066262e-04 -3.30285326e-09  3.17774375e-04 -8.22672720e-09  1.88845208e-09
 -6.36308311e-04  1.42079262e-08  6.36414668e-03 -5.62693656e-04  8.22725188e-09
 -7.50689341e-08 -5.17569585e-04 -4.14519089e-04 -6.63212910e-06  2.68832234e-05
  5.18184615e-10 -1.19443502e-04  8.27014312e-05 -5.37039134e-05 -1.77626676e-09
  3.49893715e-04 -5.79567368e-04 -1.23373971e-03 -8.69030966e-09  1.19030624e-05
 -1.00780045e-09  6.99645251e-10  8.07661935e-06 -1.15114331e-05 -4.25931749e-05
  3.11954976e-09 -1.93554072e-09 -2.55501732e-04 -1.64389466e-04 -2.60479985e-03
  7.03363208e-04  5.26499127e-04  3.19618313e-08  4.69042444e-07  3.75796977e-06
 -3.99482798e-06  7.17356603e-06  1.84269884e-10 -5.39820631e-05  3.01199081e-05
 -4.58984575e-05 -1.30540004e-10  8.30483259e-04  5.65171498e-07 -2.68259672e-04
 -1.20742236e-09 -6.46993843e-06  4.41784775e-10 -2.13802525e-10  5.51241999e-06
  6.19242464e-06  1.33987912e-05 -2.47404880e-09  1.41023611e-09 -7.98016052e-05
 -2.63204738e-05  6.45272017e-04 -2.93696413e-04 -1.80736523e-04 -1.07500171e-08
 -5.17569812e-04 -4.14519285e-04 -6.63275045e-06 -2.68829931e-05 -7.66572422e-10
 -1.19443668e-04  8.27027430e-05  5.37014452e-05  7.84625817e-10  3.49894641e-04
 -5.79536678e-04  1.23375026e-03  5.08338523e-08  1.19030773e-05 -4.60393165e-10
 -2.07167158e-09  8.07716223e-06  1.15110651e-05 -4.25934408e-05  1.11862018e-08
  1.76288095e-08 -2.55494183e-04  1.64401002e-04 -2.60479184e-03  7.03350939e-04
 -5.26513542e-04  7.07488658e-09  4.69042316e-07  3.75798763e-06 -3.99500283e-06
 -7.17344124e-06 -1.52466684e-10 -5.39822723e-05  3.01210989e-05  4.58974631e-05
  2.00163480e-09  8.30480056e-04  5.72650903e-07  2.68259087e-04  1.17572856e-08
 -6.46992122e-06  1.37659903e-10  4.94021799e-10  5.51215419e-06 -6.19269578e-06
  1.33987640e-05 -1.14863482e-09  1.27036630e-09 -7.98004753e-05  2.63244721e-05
  6.45269857e-04 -2.93692126e-04  1.80742576e-04 -2.26523506e-09  4.02667367e-04
  2.84766906e-04  1.76120487e-04  6.44234474e-05 -1.02910921e-04 -2.43245213e-10
  4.02667359e-04  2.84766959e-04  1.76120639e-04  6.44257645e-05  1.02909464e-04
  5.17115930e-09  3.79831682e-07  3.25872212e-07  1.47346279e-08 -2.04520090e-05
 -4.70583277e-10 -1.03796946e-07 -1.26875969e-07  1.15502560e-04  2.73712719e-09
  5.07943426e-07  3.41973462e-07  1.10580559e-03  2.72632602e-08  9.89544056e-09
 -2.75407418e-10 -2.64059675e-09 -3.28246651e-09 -1.16739542e-05 -4.14753537e-08
  5.71396842e-09  1.23851352e-08 -2.03825053e-08  2.36972249e-04  2.10506118e-06
  4.56644538e-07  4.78067625e-04  1.19637099e-08 -6.00323934e-06 -5.05822545e-06
  9.11947897e-08 -2.19750346e-04 -5.31690026e-09  4.08071246e-08  1.96867948e-07
 -4.43166729e-04 -1.07800762e-08  4.13885040e-06  1.64748878e-06 -4.73033626e-03
 -1.14230737e-07 -6.22822463e-08 -4.16440516e-09  2.81054190e-10 -6.69497069e-08
 -1.71703976e-04 -1.66558268e-07  6.50799603e-10  2.47508387e-08  2.26647078e-08
  2.48389646e-05  8.01156763e-06  2.22603022e-06 -4.70336891e-03 -1.13892507e-07
 -3.97929068e-01 -3.29592295e-01  4.18601726e-04  6.81069192e-04  7.62098078e-09
 -4.27785285e-03 -1.01052818e-03 -1.54557258e-03 -1.93759369e-08 -6.91905869e-04
 -2.92520650e-03 -4.18172873e-03 -2.67404048e-08  3.71178689e-04 -4.06759156e-09
 -1.03992600e-08  2.69332293e-04 -5.40230698e-04  1.50585231e-04 -2.15344592e-09
  3.37221046e-09  2.59546284e-04 -2.38747358e-04  7.59914153e-03 -1.90419956e-03
 -2.43350425e-03  1.42565329e-08  3.20948045e-04  3.52677791e-04  1.90143523e-04
  3.01109108e-04  3.10337151e-09 -5.92060993e-04 -1.67541018e-04 -2.08942264e-04
 -3.76815953e-09  5.56812978e-03 -1.29092028e-03 -2.10650295e-03 -2.93884583e-08
  5.03020801e-05 -1.22809583e-09 -1.75715183e-09  4.11905052e-05 -7.70011435e-05
 -2.66275336e-04  7.66558428e-09  1.03317475e-08 -1.99983656e-04  4.29980436e-04
  1.85064206e-03  2.37156078e-04  1.65568583e-04 -1.48367180e-08  3.98539538e-01
  3.30097947e-01 -4.19213073e-04  6.82171746e-04  2.55905608e-08  4.28424306e-03
  1.01210601e-03 -1.54836839e-03 -5.57359003e-08  6.95209378e-04  2.92828437e-03
 -4.18755508e-03 -1.75150556e-07 -3.71730091e-04 -2.20716838e-08  3.38098322e-08
 -2.69784841e-04 -5.41055805e-04 -1.50947605e-04 -9.47543487e-09  2.86661257e-08
 -2.59673609e-04 -2.39318382e-04 -7.60818838e-03  1.90609181e-03 -2.43733625e-03
 -1.31440095e-07 -3.21440938e-04 -3.53211637e-04 -1.90428213e-04  3.01597757e-04
  1.14527893e-08  5.92919099e-04  1.67785403e-04 -2.09415941e-04 -6.35859327e-09
 -5.57685531e-03  1.29297969e-03 -2.10992395e-03 -7.28848277e-08 -5.03782091e-05
 -2.50312643e-09  4.45688617e-09 -4.12530189e-05 -7.71192711e-05  2.66733326e-04
  1.31919585e-08 -2.17442743e-08  2.00375329e-04  4.30685676e-04 -1.85314579e-03