Generated by Psi4
        SP                           RHF                        STO-3G
Number of atoms                            I                6
Charge                                     I                0
Multiplicity                               I                1
Number of electrons                        I               16
Number of alpha electrons                  I                8
Number of beta electrons                   I                8
Number of basis functions                  I               14
Number of independent functions            I               14
Atomic numbers                             I   N=           6
           6           6           1           1           1           1
Nuclear charges                            R   N=           6
  6.00000000e+00  6.00000000e+00  1.00000000e+00  1.00000000e+00  1.00000000e+00
  1.00000000e+00
Current cartesian coordinates              R   N=          18
 -1.23401989e+00  1.36693603e-05 -1.25587389e-06  1.23401989e+00 -1.36694484e-05
  6.19077365e-06 -2.32286583e+00  1.73063002e+00  4.51807157e-06 -2.32290431e+00
 -1.73057844e+00 -5.87585337e-05  2.32286583e+00 -1.73063002e+00 -3.33628613e-05
  2.32290432e+00  1.73057844e+00  2.88443174e-05
Integer atomic weights                     I   N=           6
          12          12           1           1           1           1
Real atomic weights                        R   N=           6
  1.20000000e+01  1.20000000e+01  1.00782503e+00  1.00782503e+00  1.00782503e+00
  1.00782503e+00
Number of primitive shells                 I               30
Number of contracted shells                I               10
Pure/Cartesian d shells                    I                0
Pure/Cartesian f shells                    I                0
Highest angular momentum                   I                1
Largest degree of contraction              I                3
Shell types                                I   N=          10
           0           0           1           0           0           1
           0           0           0           0
Number of primitives per shell             I   N=          10
           3           3           3           3           3           3
           3           3           3           3
Shell to atom map                          I   N=          10
           1           1           1           2           2           2
           3           4           5           6
Primitive exponents                        R   N=          30
  7.16168370e+01  1.30450960e+01  3.53051220e+00  2.94124940e+00  6.83483100e-01
  2.22289900e-01  2.94124940e+00  6.83483100e-01  2.22289900e-01  7.16168370e+01
  1.30450960e+01  3.53051220e+00  2.94124940e+00  6.83483100e-01  2.22289900e-01
  2.94124940e+00  6.83483100e-01  2.22289900e-01  3.42525091e+00  6.23913730e-01
  1.68855400e-01  3.42525091e+00  6.23913730e-01  1.68855400e-01  3.42525091e+00
  6.23913730e-01  1.68855400e-01  3.42525091e+00  6.23913730e-01  1.68855400e-01
Contraction coefficients                   R   N=          30
  1.54328970e-01  5.35328140e-01  4.44634540e-01 -9.99672301e-02  3.99512830e-01
  7.00115471e-01  1.55916272e-01  6.07683728e-01  3.91957395e-01  1.54328970e-01
  5.35328140e-01  4.44634540e-01 -9.99672301e-02  3.99512830e-01  7.00115471e-01
  1.55916272e-01  6.07683728e-01  3.91957395e-01  1.54328971e-01  5.35328142e-01
  4.44634542e-01  1.54328971e-01  5.35328142e-01  4.44634542e-01  1.54328971e-01
  5.35328142e-01  4.44634542e-01  1.54328971e-01  5.35328142e-01  4.44634542e-01
Coordinates of each shell                  R   N=          30
 -1.23401989e+00  1.36693603e-05 -1.25587389e-06 -1.23401989e+00  1.36693603e-05
 -1.25587389e-06 -1.23401989e+00  1.36693603e-05 -1.25587389e-06  1.23401989e+00
 -1.36694484e-05  6.19077365e-06  1.23401989e+00 -1.36694484e-05  6.19077365e-06
  1.23401989e+00 -1.36694484e-05  6.19077365e-06 -2.32286583e+00  1.73063002e+00
  4.51807157e-06 -2.32290431e+00 -1.73057844e+00 -5.87585337e-05  2.32286583e+00
 -1.73063002e+00 -3.33628613e-05  2.32290432e+00  1.73057844e+00  2.88443174e-05
Total Energy                               R     -7.707421109513028e+01
Alpha Orbital Energies                     R   N=          14
 -1.10218733e+01 -1.10208257e+01 -9.87663401e-01 -7.45732266e-01 -6.05617577e-01
 -5.40231344e-01 -4.58064029e-01 -3.35490386e-01  3.28327598e-01  6.18830228e-01
  6.99902721e-01  7.03617663e-01  9.47752815e-01  1.02789834e+00
Alpha MO coefficients                      R   N=         196
  7.01784374e-01  2.00110772e-02 -2.04013801e-03  2.26859280e-08 -6.44443376e-08
  7.01784585e-01  2.00110866e-02  2.04013665e-03 -2.26843397e-08 -1.78070056e-08
 -4.74861839e-03 -4.74861834e-03 -4.74861985e-03 -4.74861980e-03  7.01446687e-01
  3.15926184e-02  4.51134547e-03 -4.98652071e-08 -5.15494649e-08 -7.01446477e-01
 -3.15926123e-02  4.51134609e-03 -4.98671463e-08  4.88707633e-08 -4.92094280e-03
 -4.92094284e-03  4.92094136e-03  4.92094140e-03  1.79525122e-01 -4.68050779e-01
 -1.19490129e-01  1.32224365e-06  6.10454686e-07  1.79525121e-01 -4.68050778e-01
  1.19490130e-01 -1.32227535e-06  1.00469453e-06 -1.11962749e-01 -1.11962751e-01
 -1.11962749e-01 -1.11962750e-01  1.35635215e-01 -4.10059158e-01  2.03321833e-01
 -2.25000387e-06  2.90717236e-06 -1.35635215e-01  4.10059160e-01  2.03321832e-01
 -2.24994365e-06 -1.53152059e-07 -2.23583716e-01 -2.23583730e-01  2.23583716e-01
  2.23583730e-01 -1.45699267e-09  6.77060215e-09  4.40035744e-06  3.96866277e-01
  7.22567929e-06  1.45840857e-09 -6.77568578e-09  4.40037217e-06  3.96866274e-01
  7.16244039e-06  2.56607680e-01 -2.56607665e-01 -2.56607677e-01  2.56607662e-01
  1.48923630e-02 -1.68640952e-02 -4.99960082e-01  5.50138173e-06 -6.30288781e-06
  1.48923630e-02 -1.68640948e-02  4.99960083e-01 -5.50124494e-06 -1.82577024e-06
  2.16989529e-01  2.16989611e-01  2.16989530e-01  2.16989611e-01  4.02204968e-09
 -1.05876150e-08  4.30022809e-06  3.93355343e-01  7.30970879e-06  4.02131353e-09
 -1.05832781e-08 -4.30022678e-06 -3.93355346e-01 -6.95112394e-06  3.50619242e-01
 -3.50619183e-01  3.50619244e-01 -3.50619185e-01 -1.06034571e-06  4.96749924e-06
 -8.13448334e-06 -1.16184654e-05  6.31961715e-01 -2.43366894e-07  1.58399447e-06
  2.98060507e-06 -1.12928240e-05  6.31961714e-01  3.07935008e-07  5.16910944e-07
  5.32272458e-07  7.41248396e-07 -2.55893842e-06  1.39140861e-05 -9.34068437e-06
 -1.49901745e-05  8.17562435e-01  1.66770957e-06 -8.48332569e-06  2.05525564e-07
  1.46498955e-05 -8.17562436e-01 -6.97765364e-06 -7.18201570e-06  4.05399480e-06
  4.25835676e-06  1.60708688e-08 -1.05774928e-07  7.70369298e-06  6.98230950e-01
  1.29051733e-05 -1.60605493e-08  1.05712713e-07  7.70365159e-06  6.98230957e-01
  1.24087199e-05 -6.26289130e-01  6.26289175e-01  6.26289134e-01 -6.26289178e-01
  1.23306882e-01 -8.27163263e-01  5.21080272e-01 -5.81626737e-06  1.20792484e-05
  1.23306985e-01 -8.27163911e-01 -5.21080411e-01  5.81597442e-06  4.88713721e-07
  6.31318060e-01  6.31318037e-01  6.31318456e-01  6.31318433e-01  1.67545307e-01
 -1.05618656e+00  2.29880181e-01 -2.59491768e-06  1.66501579e-05 -1.67545231e-01
  1.05618605e+00  2.29879861e-01 -2.59443970e-06 -1.12069503e-05  6.46265160e-01
  6.46265111e-01 -6.46264771e-01 -6.46264721e-01  4.08872633e-09 -3.74515220e-08
  1.06596562e-05  9.58363192e-01  1.74592193e-05  4.09695333e-09 -3.75144569e-08
 -1.06596512e-05 -9.58363184e-01 -1.72855937e-05 -6.12347968e-01  6.12348015e-01
 -6.12347961e-01  6.12348008e-01  1.15830002e-01 -9.29915589e-01 -1.17935069e+00
  1.30251803e-05 -5.88037025e-06 -1.15830002e-01  9.29915588e-01 -1.17935069e+00
  1.30250920e-05 -1.84102085e-06 -1.17525443e-01 -1.17525538e-01  1.17525444e-01
  1.17525539e-01
Total SCF Density                          R   N=         105
  2.07075345e+00 -2.07384965e-01  7.77805959e-01  8.26529694e-04 -3.78269148e-02
  6.11204515e-01 -7.83240544e-09  4.16649811e-07  1.43506394e-07  6.24462535e-01
 -6.82882195e-07  3.52961436e-06 -2.94275856e-06 -3.19904860e-06  7.98751218e-01
  2.90565777e-02 -7.35532446e-02 -1.22141745e-01  1.35509224e-06 -1.08290653e-06
  2.07075345e+00 -7.35532446e-02  1.01219531e-01  2.95098904e-01 -3.27825756e-06
  4.02808815e-06 -2.07384965e-01  7.77805960e-01  1.22141745e-01 -2.95098903e-01
 -4.45764034e-01  5.01124051e-06 -1.20778553e-06 -8.26529552e-04  3.78269147e-02
  6.11204514e-01 -1.35505356e-06  3.27808355e-06  5.01137596e-06  5.54882715e-03
 -1.42885794e-05  7.84552564e-09 -4.16733851e-07  1.43414391e-07  6.24462535e-01
 -1.03181862e-06  5.52760077e-06 -8.75760321e-06 -1.44683288e-05  7.98751217e-01
 -5.32495941e-08  9.93728184e-07  2.11994705e-06 -3.11966115e-06  7.98751217e-01
 -1.07957498e-01  2.80353956e-01 -2.81153972e-01  4.79516871e-01  5.05249388e-06
  2.71529173e-02 -8.57543913e-02  9.92318847e-02 -7.21591238e-02 -1.75846496e-06
  5.96875821e-01 -1.07957504e-01  2.80353974e-01 -2.81164607e-01 -4.79510617e-01
 -1.23517340e-05  2.71529163e-02 -8.57543831e-02  9.92334741e-02  7.21569198e-02
  9.02706121e-07 -1.58249505e-01  5.96875806e-01  2.71529173e-02 -8.57543911e-02
 -9.92318848e-02  7.21591239e-02  5.18351022e-07 -1.07957498e-01  2.80353956e-01
  2.81153972e-01 -4.79516872e-01 -8.96267570e-06  1.33430244e-01 -9.49151052e-02
  5.96875822e-01  2.71529162e-02 -8.57543829e-02 -9.92334743e-02 -7.21569198e-02
 -2.05255886e-06 -1.07957504e-01  2.80353974e-01  2.81164607e-01  4.79510617e-01
  8.40199261e-06 -9.49151052e-02  1.33430234e-01 -1.58249505e-01  5.96875807e-01
