Generated by Psi4
        SP                           RHF                        STO-3G
Number of atoms                            I                3
Charge                                     I                0
Multiplicity                               I                1
Number of electrons                        I               10
Number of alpha electrons                  I                5
Number of beta electrons                   I                5
Number of basis functions                  I                7
Number of independent functions            I                7
Atomic numbers                             I   N=           3
           8           1           1
Nuclear charges                            R   N=           3
  8.00000000e+00  1.00000000e+00  1.00000000e+00
Current cartesian coordinates              R   N=           9
  1.04764464e-50  0.00000000e+00 -1.18440154e-01  1.49666424e+00  4.58221266e-17
  9.39865598e-01 -1.49666424e+00 -4.58221266e-17  9.39865598e-01
Integer atomic weights                     I   N=           3
          16           1           1
Real atomic weights                        R   N=           3
  1.59949146e+01  1.00782503e+00  1.00782503e+00
Number of primitive shells                 I               15
Number of contracted shells                I                5
Pure/Cartesian d shells                    I                0
Pure/Cartesian f shells                    I                0
Highest angular momentum                   I                1
Largest degree of contraction              I                3
Shell types                                I   N=           5
           0           0           1           0           0
Number of primitives per shell             I   N=           5
           3           3           3           3           3
Shell to atom map                          I   N=           5
           1           1           1           2           3
Primitive exponents                        R   N=          15
  1.30709320e+02  2.38088610e+01  6.44360830e+00  5.03315130e+00  1.16959610e+00
  3.80389000e-01  5.03315130e+00  1.16959610e+00  3.80389000e-01  3.42525091e+00
  6.23913730e-01  1.68855400e-01  3.42525091e+00  6.23913730e-01  1.68855400e-01
Contraction coefficients                   R   N=          15
  1.54328969e-01  5.35328136e-01  4.44634536e-01 -9.99672287e-02  3.99512825e-01
  7.00115461e-01  1.55916268e-01  6.07683714e-01  3.91957386e-01  1.54328971e-01
  5.35328142e-01  4.44634542e-01  1.54328971e-01  5.35328142e-01  4.44634542e-01
Coordinates of each shell                  R   N=          15
  1.04764464e-50  0.00000000e+00 -1.18440154e-01  1.04764464e-50  0.00000000e+00
 -1.18440154e-01  1.04764464e-50  0.00000000e+00 -1.18440154e-01  1.49666424e+00
  4.58221266e-17  9.39865598e-01 -1.49666424e+00 -4.58221266e-17  9.39865598e-01
Total Energy                               R     -7.496172843127441e+01
Alpha Orbital Energies                     R   N=           7
 -2.02359632e+01 -1.25590742e+00 -6.18564334e-01 -4.39317168e-01 -3.86333022e-01
  5.83008932e-01  7.42287752e-01
Alpha MO coefficients                      R   N=          49
  9.94148503e-01  2.63540224e-02  0.00000000e+00  0.00000000e+00  4.06218375e-03
 -5.86036143e-03 -5.86036143e-03  2.33629243e-01 -8.39019831e-01  0.00000000e+00
  0.00000000e+00 -1.20019922e-01 -1.58805963e-01 -1.58805963e-01  0.00000000e+00
  0.00000000e+00  5.99240169e-01  0.00000000e+00  0.00000000e+00  4.43197035e-01
 -4.43197035e-01  9.93476157e-02 -5.17761771e-01  0.00000000e+00  0.00000000e+00
  7.89406535e-01  2.77262608e-01  2.77262608e-01  0.00000000e+00  0.00000000e+00
  0.00000000e+00  1.00000000e+00  0.00000000e+00  0.00000000e+00  0.00000000e+00
  1.32754283e-01 -8.73443532e-01  0.00000000e+00  0.00000000e+00 -7.14023840e-01
  7.92861982e-01  7.92861982e-01  0.00000000e+00  0.00000000e+00  9.97121705e-01
  0.00000000e+00  0.00000000e+00 -8.24239301e-01  8.24239301e-01
Total SCF Density                          R   N=          28
  2.10556764e+00 -4.42516307e-01  1.94545213e+00  0.00000000e+00  0.00000000e+00
  7.18177561e-01  0.00000000e+00  0.00000000e+00  0.00000000e+00  2.00000000e+00
  1.08847815e-01 -6.15836752e-01  0.00000000e+00  0.00000000e+00  1.27516792e+00
 -3.07648149e-02 -2.09381416e-02  5.31162932e-01  0.00000000e+00  4.75817976e-01
  5.97103685e-01 -3.07648149e-02 -2.09381416e-02 -5.31162932e-01  0.00000000e+00
  4.75817976e-01 -1.88590760e-01  5.97103685e-01
