Generated by Psi4
        SP                           RHF                         3-21G
Number of atoms                            I                6
Charge                                     I                0
Multiplicity                               I                1
Number of electrons                        I               16
Number of alpha electrons                  I                8
Number of beta electrons                   I                8
Number of basis functions                  I               26
Number of independent functions            I               26
Atomic numbers                             I   N=           6
           6           6           1           1           1           1
Nuclear charges                            R   N=           6
  6.00000000e+00  6.00000000e+00  1.00000000e+00  1.00000000e+00  1.00000000e+00
  1.00000000e+00
Current cartesian coordinates              R   N=          18
 -1.23401988e+00  1.36693481e-05 -1.25586963e-06  1.23401988e+00 -1.36694558e-05
  6.19077709e-06 -2.32286583e+00  1.73063001e+00  4.51805082e-06 -2.32290431e+00
 -1.73057843e+00 -5.87585590e-05  2.32286583e+00 -1.73063001e+00 -3.33628815e-05
  2.32290431e+00  1.73057843e+00  2.88442920e-05
Integer atomic weights                     I   N=           6
          12          12           1           1           1           1
Real atomic weights                        R   N=           6
  1.20000000e+01  1.20000000e+01  1.00782503e+00  1.00782503e+00  1.00782503e+00
  1.00782503e+00
Number of primitive shells                 I               30
Number of contracted shells                I               18
Pure/Cartesian d shells                    I                1
Pure/Cartesian f shells                    I                1
Highest angular momentum                   I                1
Largest degree of contraction              I                3
Shell types                                I   N=          18
           0           0           1           0           1           0
           0           1           0           1           0           0
           0           0           0           0           0           0
Number of primitives per shell             I   N=          18
           3           2           2           1           1           3
           2           2           1           1           2           1
           2           1           2           1           2           1
Shell to atom map                          I   N=          18
           1           1           1           1           1           2
           2           2           2           2           3           3
           4           4           5           5           6           6
Primitive exponents                        R   N=          30
  1.72256000e+02  2.59109000e+01  5.53335000e+00  3.66498000e+00  7.70545000e-01
  3.66498000e+00  7.70545000e-01  1.95857000e-01  1.95857000e-01  1.72256000e+02
  2.59109000e+01  5.53335000e+00  3.66498000e+00  7.70545000e-01  3.66498000e+00
  7.70545000e-01  1.95857000e-01  1.95857000e-01  5.44717800e+00  8.24547000e-01
  1.83192000e-01  5.44717800e+00  8.24547000e-01  1.83192000e-01  5.44717800e+00
  8.24547000e-01  1.83192000e-01  5.44717800e+00  8.24547000e-01  1.83192000e-01
Contraction coefficients                   R   N=          30
  6.17669074e-02  3.58794043e-01  7.00713084e-01 -3.95895162e-01  1.21583436e+00
  2.36459947e-01  8.60618806e-01  1.00000000e+00  1.00000000e+00  6.17669074e-02
  3.58794043e-01  7.00713084e-01 -3.95895162e-01  1.21583436e+00  2.36459947e-01
  8.60618806e-01  1.00000000e+00  1.00000000e+00  1.56284981e-01  9.04690888e-01
  1.00000000e+00  1.56284981e-01  9.04690888e-01  1.00000000e+00  1.56284981e-01
  9.04690888e-01  1.00000000e+00  1.56284981e-01  9.04690888e-01  1.00000000e+00
Coordinates of each shell                  R   N=          54
 -1.23401988e+00  1.36693481e-05 -1.25586963e-06 -1.23401988e+00  1.36693481e-05
 -1.25586963e-06 -1.23401988e+00  1.36693481e-05 -1.25586963e-06 -1.23401988e+00
  1.36693481e-05 -1.25586963e-06 -1.23401988e+00  1.36693481e-05 -1.25586963e-06
  1.23401988e+00 -1.36694558e-05  6.19077709e-06  1.23401988e+00 -1.36694558e-05
  6.19077709e-06  1.23401988e+00 -1.36694558e-05  6.19077709e-06  1.23401988e+00
 -1.36694558e-05  6.19077709e-06  1.23401988e+00 -1.36694558e-05  6.19077709e-06
 -2.32286583e+00  1.73063001e+00  4.51805082e-06 -2.32286583e+00  1.73063001e+00
  4.51805082e-06 -2.32290431e+00 -1.73057843e+00 -5.87585590e-05 -2.32290431e+00
 -1.73057843e+00 -5.87585590e-05  2.32286583e+00 -1.73063001e+00 -3.33628815e-05
  2.32286583e+00 -1.73063001e+00 -3.33628815e-05  2.32290431e+00  1.73057843e+00
  2.88442920e-05  2.32290431e+00  1.73057843e+00  2.88442920e-05
Total Energy                               R     -7.760069036918074e+01
Alpha Orbital Energies                     R   N=          26
 -1.11670544e+01 -1.11667680e+01 -1.04001500e+00 -7.85124887e-01 -6.44232996e-01
 -5.92386499e-01 -4.94259803e-01 -3.82226324e-01  1.88780211e-01  2.97394014e-01
  3.09026419e-01  3.40835270e-01  4.39445545e-01  5.49234655e-01  8.66919110e-01
  9.30658933e-01  9.88244391e-01  1.08099401e+00  1.12350168e+00  1.12777461e+00
  1.31998109e+00  1.34703837e+00  1.40915991e+00  1.64527865e+00  1.65525933e+00
  1.97944805e+00
Alpha MO coefficients                      R   N=         676
  6.97567421e-01  6.52676455e-02 -1.70732704e-03  1.89645091e-08 -3.74261258e-08
 -3.11664214e-02  4.39885657e-03 -4.93005078e-08  1.30608583e-07  6.97567836e-01
  6.52676877e-02  1.70732571e-03 -1.89637286e-08 -9.51256836e-09 -3.11664620e-02
 -4.39884700e-03  4.92975325e-08  2.54370391e-08 -1.72270750e-03  9.53325676e-03
 -1.72270772e-03  9.53325643e-03 -1.72270761e-03  9.53326141e-03 -1.72270784e-03
  9.53326108e-03  6.97916453e-01  7.11588672e-02  2.21874623e-03 -2.44751575e-08
 -2.00847019e-08 -6.83115837e-02 -1.60476818e-02  1.77253900e-07  9.29773802e-08
 -6.97916039e-01 -7.11588284e-02  2.21874725e-03 -2.44758933e-08  1.67853690e-08
  6.83115652e-02 -1.60476844e-02  1.77259195e-07 -1.43321264e-07 -2.07449858e-04
  7.85809532e-03 -2.07450141e-04  7.85809501e-03  2.07448829e-04 -7.85808963e-03
  2.07449110e-04 -7.85808933e-03  1.67216224e-01 -1.84062092e-01 -1.14736613e-01
  1.27016565e-06  4.44305227e-07 -3.66992173e-01 -1.61417541e-02  1.75575040e-07
  7.34144850e-07  1.67216224e-01 -1.84062092e-01  1.14736614e-01 -1.27018556e-06
  8.93137661e-07 -3.66992172e-01  1.61417542e-02 -1.75591174e-07  4.31538679e-07
 -7.57939276e-02 -3.72415758e-03 -7.57939277e-02 -3.72415918e-03 -7.57939274e-02
 -3.72415760e-03 -7.57939275e-02 -3.72415921e-03  1.27226717e-01 -1.30041265e-01
  1.44113967e-01 -1.59477933e-06  2.16725360e-06 -4.19836416e-01  6.39691519e-02
 -7.09567242e-07  1.72918952e-06 -1.27226718e-01  1.30041266e-01  1.44113966e-01
 -1.59475449e-06 -1.44581236e-07  4.19836417e-01  6.39691515e-02 -7.09536449e-07
 -5.93113453e-07 -1.37486144e-01 -6.81462455e-02 -1.37486154e-01 -6.81462512e-02
  1.37486144e-01  6.81462454e-02  1.37486154e-01  6.81462511e-02 -1.15759182e-09
  7.42631513e-10  3.10104311e-06  2.79637991e-01  5.09224141e-06  1.05962932e-08
  2.15631579e-06  1.94236750e-01  3.53812757e-06  1.15662201e-09 -7.41342688e-10
  3.10093213e-06  2.79637990e-01  5.04584566e-06 -1.06039313e-08  2.15625343e-06
  1.94236750e-01  3.50379501e-06  1.45628830e-01  1.08565022e-01 -1.45628823e-01
 -1.08565016e-01 -1.45628830e-01 -1.08565022e-01  1.45628823e-01  1.08565016e-01
  7.61779075e-03 -2.17698505e-02 -3.63964616e-01  4.01196474e-06 -4.12877037e-06
  3.41205484e-02 -2.20053878e-01  2.41104407e-06 -2.83996443e-06  7.61779049e-03
 -2.17698503e-02  3.63964617e-01 -4.01179045e-06 -9.91965605e-07  3.41205496e-02
  2.20053878e-01 -2.41091173e-06 -7.40513381e-07  1.19735516e-01  1.10935951e-01
  1.19735554e-01  1.10935971e-01  1.19735516e-01  1.10935952e-01  1.19735554e-01
  1.10935971e-01  3.04485726e-09 -5.78308019e-09  2.83219913e-06  2.58672644e-01
  4.79927294e-06 -6.48655183e-09  3.08044327e-06  2.79840401e-01  5.17433473e-06
  3.05231501e-09 -5.78263653e-09 -2.83219806e-06 -2.58672644e-01 -4.57872929e-06
 -6.57024596e-09 -3.08040465e-06 -2.79840401e-01 -4.97109054e-06  1.78955655e-01
  1.59026385e-01 -1.78955631e-01 -1.59026351e-01  1.78955656e-01  1.59026385e-01
 -1.78955631e-01 -1.59026352e-01 -8.24929847e-07  7.81954458e-07 -4.54350735e-06
 -5.95233875e-06  3.22882682e-01  3.16450475e-06 -4.20511502e-06 -6.82227261e-06
  3.70544124e-01 -1.85774838e-07  1.09294446e-08  1.93093507e-06 -5.75352649e-06
  3.22882682e-01  1.39128241e-06  8.57944581e-07 -6.61151800e-06  3.70544124e-01
  8.92481834e-08  8.80739485e-07  1.92799650e-07  1.01671575e-06  1.79061142e-07
  7.84436957e-07  2.82612522e-07  9.20413231e-07 -1.85501453e-06  1.32554083e-06
 -3.47845849e-06 -5.53593679e-06  3.01937105e-01  1.12377231e-05 -1.33304285e-05
 -1.40813256e-05  7.67136497e-01  1.13962770e-06 -1.15494303e-06  2.62918889e-07
  5.41054833e-06 -3.01937106e-01 -3.31499765e-06 -4.19180999e-06  1.37305897e-05
 -7.67136498e-01 -1.98249533e-06 -8.10172668e-06 -2.04554316e-06 -8.39601686e-06
  1.05338789e-06  4.41713571e-06  1.11643598e-06  4.71142635e-06  9.03754188e-02
 -3.11224133e-02  1.32170273e-01 -1.47357971e-06  3.17388272e-06 -1.37960005e+00
  6.34128977e-01 -7.08462434e-06  1.44186243e-05  9.03754198e-02 -3.11224138e-02
 -1.32170274e-01  1.47340951e-06  1.87484057e-07 -1.37960006e+00 -6.34128979e-01
  7.08406460e-06 -7.34333883e-07  1.65655283e-02  9.55277530e-01  1.65655241e-02
  9.55277495e-01  1.65655287e-02  9.55277536e-01  1.65655246e-02  9.55277501e-01
  1.12646193e-08 -7.34111735e-09  2.43279958e-06  2.19424861e-01  4.05516599e-06
 -1.04401932e-07  8.78593805e-06  7.88084799e-01  1.46226496e-05 -1.12280658e-08
  7.34221561e-09  2.43273450e-06  2.19424861e-01  3.89993479e-06  1.03684875e-07
  8.78559228e-06  7.88084801e-01  1.39488349e-05 -5.38810847e-02 -9.89334455e-01
  5.38810885e-02  9.89334583e-01  5.38810846e-02  9.89334456e-01 -5.38810884e-02
 -9.89334583e-01  1.20745605e-01 -4.58847464e-02  9.09942601e-02 -1.03014751e-06
  4.52969153e-06 -1.58976283e+00  3.17411933e-01 -3.59268579e-06  2.07182746e-05
 -1.20745604e-01  4.58847462e-02  9.09942593e-02 -1.03001900e-06 -2.66485507e-06
  1.58976282e+00  3.17411928e-01 -3.59239249e-06 -1.43943826e-05  2.33056647e-02
  9.93797042e-01  2.33056607e-02  9.93796911e-01 -2.33056649e-02 -9.93797033e-01
 -2.33056609e-02 -9.93796902e-01  2.32097121e-09  2.31792436e-09  2.68261743e-06
  2.40183822e-01  4.39533915e-06 -8.53237944e-08  1.84793735e-05  1.66260020e+00
  3.02713406e-05  2.27911638e-09  2.25792519e-09 -2.68270423e-06 -2.40183822e-01
 -4.31236386e-06 -8.36100454e-08 -1.84810500e-05 -1.66260020e+00 -3.00051116e-05
  4.09700829e-02 -1.38932785e+00 -4.09700888e-02  1.38932796e+00  4.09700829e-02
 -1.38932785e+00 -4.09700888e-02  1.38932795e+00  9.35490618e-02  7.72156407e-03
 -1.38039175e-01  1.52474517e-06 -2.38427808e-06 -2.80566162e+00 -2.70070104e+00
  2.98955032e-05 -1.73141109e-05 -9.35490619e-02 -7.72156404e-03 -1.38039174e-01
  1.52489930e-06  5.69319375e-07  2.80566163e+00 -2.70070104e+00  2.98961854e-05
 -8.92228933e-07 -7.11433598e-02 -4.29898867e-01 -7.11433369e-02 -4.29899006e-01
  7.11433600e-02  4.29898866e-01  7.11433371e-02  4.29899003e-01  1.88542154e-02
  1.27510418e-01  6.42933753e-01 -7.17235619e-06  1.20335080e-06  4.01654880e-01
 -1.04351586e+00  1.16082749e-05 -6.05220807e-06  1.88542155e-02  1.27510418e-01
 -6.42933753e-01  7.17238037e-06 -3.03876182e-06  4.01654879e-01  1.04351586e+00
 -1.16082825e-05  3.57204137e-06 -1.18062046e-01 -1.34887827e-01 -1.18062003e-01
 -1.34887928e-01 -1.18062046e-01 -1.34887826e-01 -1.18062002e-01 -1.34887927e-01
 -2.87591509e-09 -1.29822793e-08  4.81075560e-06  4.29751838e-01  7.76699730e-06
 -1.08197637e-07 -7.85833315e-06 -6.92706209e-01 -1.26869886e-05  2.87121818e-09
  1.28920361e-08  4.81080025e-06  4.29751837e-01  7.81336558e-06  1.08366906e-07
 -7.85828940e-06 -6.92706203e-01 -1.24266092e-05  4.42409754e-01 -3.35225571e-02
 -4.42409835e-01  3.35225505e-02 -4.42409754e-01  3.35225594e-02  4.42409834e-01
 -3.35225529e-02 -7.64391630e-07  1.54291078e-06 -3.44938904e-06 -1.39346256e-05
  7.61923125e-01  5.69774594e-06 -4.21337435e-06  1.06177137e-05 -5.80889853e-01
 -3.56903576e-07  6.97533686e-07 -2.39292922e-06 -1.36883192e-05  7.61923125e-01
  5.41021430e-06  3.78001118e-06  1.04420609e-05 -5.80889853e-01 -4.17604565e-06
 -3.39920990e-06 -4.18968347e-06 -3.46267751e-06 -1.92516698e-06 -1.54122793e-06
 -1.93880389e-06 -1.60469517e-06 -4.87359437e-07  1.64366059e-06 -5.84312822e-06
 -1.45209990e-05  7.97535446e-01  2.12902120e-06 -1.82040180e-07  1.72884607e-05
 -9.53248400e-01  2.55725275e-07 -5.03220013e-07 -3.97119970e-07  1.43930515e-05
 -7.97535446e-01 -4.53801502e-07 -5.14991400e-06 -1.72708635e-05  9.53248400e-01
 -2.14792958e-06 -3.47948148e-06 -2.24696760e-06 -3.47384082e-06  1.90219340e-06
  1.69937152e-06  2.00123166e-06  1.69373031e-06  9.44445294e-02  2.15356659e-03
 -5.54261575e-01  6.20342072e-06  4.51268393e-07 -4.06446642e-01  3.99276793e-01
 -4.52692976e-06  8.66259506e-06 -9.44445305e-02 -2.15357731e-03 -5.54261570e-01
  6.20350337e-06 -1.71937750e-06  4.06446654e-01  3.99276796e-01 -4.52693336e-06
 -5.98019358e-06  4.81151607e-01 -1.21762667e-01  4.81151549e-01 -1.21762726e-01
 -4.81151627e-01  1.21762676e-01 -4.81151569e-01  1.21762735e-01  3.64924025e-02
  3.62610760e-01  1.76605601e-01 -1.94869883e-06  5.21518778e-06 -4.79416062e-01
  1.05834264e-01 -1.20093388e-06  2.92481033e-06  3.64923994e-02  3.62610760e-01
 -1.76605620e-01  1.94851946e-06  3.35008926e-06 -4.79416048e-01 -1.05834246e-01
  1.20096562e-06 -3.16800023e-06  6.07449367e-01 -2.21555072e-01  6.07449386e-01
 -2.21555110e-01  6.07449352e-01 -2.21555071e-01  6.07449372e-01 -2.21555110e-01
  8.79076056e-10  8.67263799e-09  9.13657135e-06  8.21682581e-01  1.50190690e-05
  5.27480369e-08 -2.04805284e-05 -1.83982848e+00 -3.35385131e-05  8.74976911e-10
  8.68887801e-09 -9.13700877e-06 -8.21682603e-01 -1.47704805e-05  5.25931311e-08
  2.04810540e-05  1.83982851e+00  3.31632317e-05 -2.91646777e-01  1.06072084e+00
  2.91646749e-01 -1.06072088e+00 -2.91646791e-01  1.06072087e+00  2.91646764e-01
 -1.06072091e+00 -6.67576343e-09  2.34562673e-08  7.49580486e-06  6.84366267e-01
  1.25078743e-05  7.35997952e-08 -9.16931774e-06 -8.46775211e-01 -1.55129483e-05
  6.68098595e-09 -2.32862252e-08  7.49576198e-06  6.84366240e-01  1.23033625e-05
 -7.37990547e-08 -9.16931300e-06 -8.46775151e-01 -1.51863140e-05 -4.75662478e-01
  8.89943093e-01  4.75662315e-01 -8.89942810e-01  4.75662470e-01 -8.89943059e-01
 -4.75662307e-01  8.89942776e-01  1.93175717e-02 -1.47716609e-01  7.50745231e-01
 -8.21993931e-06  8.79725850e-06 -2.93020152e-01 -1.30735296e+00  1.43628755e-05
 -1.32561122e-05 -1.93175717e-02  1.47716614e-01  7.50745230e-01 -8.22023148e-06
 -1.02548839e-06  2.93020147e-01 -1.30735296e+00  1.43638029e-05  1.29662846e-06
  4.50076169e-01 -7.59985618e-01  4.50076327e-01 -7.59985921e-01 -4.50076168e-01
  7.59985621e-01 -4.50076327e-01  7.59985922e-01  2.49745612e-08 -8.79510071e-07
  3.67866063e-06  3.15336219e-01  5.75001040e-06  1.35911097e-06 -2.83900159e-05
 -2.52304737e+00 -4.59134211e-05  2.49628270e-08 -8.79181353e-07 -3.67876863e-06
 -3.15336221e-01 -5.68229476e-06  1.35849688e-06  2.83898503e-05  2.52304737e+00
  4.55579708e-05  6.90498436e-01  5.99288755e-01 -6.90498135e-01 -5.99289890e-01
  6.90498437e-01  5.99288754e-01 -6.90498136e-01 -5.99289889e-01  3.25814833e-02
 -1.19879776e+00  1.82466367e-01 -2.25358742e-06  4.58105591e-06  1.65564248e+00
 -3.56384875e-01  5.82748349e-06 -9.81530757e-06  3.25814831e-02 -1.19879776e+00
 -1.82466365e-01  2.25352982e-06  1.69386956e-06  1.65564249e+00  3.56384868e-01
 -5.82731823e-06 -2.29565189e-06  2.02379547e-01 -6.70734342e-01  2.02380587e-01
 -6.70733464e-01  2.02379545e-01 -6.70734338e-01  2.02380584e-01 -6.70733461e-01
  1.85436773e-04  1.41801295e+00  1.14988818e-01 -1.26353142e-06 -9.77581757e-07
 -3.95021008e+00 -1.21844974e+00  1.34555585e-05  5.25378475e-06 -1.85436769e-04
 -1.41801295e+00  1.14988818e-01 -1.26370535e-06  1.03680990e-06  3.95021008e+00
 -1.21844974e+00  1.34567154e-05 -1.00042447e-05  1.19883833e-01  3.36788356e-01
  1.19883803e-01  3.36788331e-01 -1.19883834e-01 -3.36788354e-01 -1.19883803e-01
 -3.36788330e-01
Total SCF Density                          R   N=         351
  2.03578723e+00  9.54055958e-02  1.21173921e-01 -6.53151752e-03  2.06956079e-02
  3.32822812e-01  7.33446111e-08 -2.31077727e-07 -4.72110859e-07  2.90217885e-01
  2.41905048e-08 -5.02436557e-08  5.94217281e-07  1.48699644e-06  2.08506453e-01
 -3.67875979e-01  2.29014945e-01 -6.18277592e-02  6.85286606e-07 -3.79044353e-07
  6.35495803e-01 -8.73668895e-03 -2.82367252e-03  1.82239216e-01  7.89895312e-07
 -6.35115861e-07 -5.49637904e-02  1.06106392e-01  9.48015078e-08  3.07685491e-08
  7.90941116e-07  2.53406062e-01  2.58651583e-07  6.10766151e-07  1.39810291e-06
  2.32077130e-01  3.42903242e-07  1.34413054e-08 -9.69894778e-07  2.44472725e-07
  2.39284561e-01  1.39726639e-07 -1.67073009e-06 -7.85477316e-07  2.74605896e-01
  2.26923364e-02 -3.70671746e-02 -8.60661029e-02  9.54555757e-07 -6.09925821e-07
  3.64846879e-02  3.50872528e-03 -3.80339329e-08 -3.22984489e-07  2.03578723e+00
 -3.70671746e-02  3.32766720e-02  9.50271245e-02 -1.05448026e-06  5.84901497e-07
  3.00746016e-02  3.50185838e-02 -3.89341991e-07  3.15043050e-07  9.54055958e-02
  1.21173921e-01  8.60661029e-02 -9.50271245e-02 -2.49727779e-01  3.02122119e-06
 -1.03211501e-06 -1.80795670e-01 -1.45506246e-01  1.21093709e-06  3.14186685e-08
  6.53151755e-03 -2.06956080e-02  3.32822812e-01 -9.54538365e-07  1.05446536e-06
  3.02124281e-06  2.25717382e-02 -3.35031597e-06  2.01137102e-06  1.21558589e-06
 -3.61421638e-02 -4.96198339e-06 -7.33452963e-08  2.31075188e-07 -4.72120326e-07
  2.90217885e-01 -2.75761059e-07  2.58113662e-07 -2.45847012e-06 -3.39058317e-06
  2.08506453e-01  1.43998646e-06 -2.32690584e-06 -5.00804117e-06  2.39284561e-01
  1.63702382e-07 -3.19771419e-07  6.88228291e-07  1.47538233e-06  2.08506453e-01
  3.64846879e-02  3.00746016e-02  1.80795670e-01 -2.01146586e-06  2.10994973e-06
 -8.82205487e-02  4.80775571e-02 -5.40666912e-07  1.75492489e-06 -3.67875979e-01
  2.29014945e-01  6.18277594e-02 -6.85254050e-07  5.66853397e-08  6.35495803e-01
 -3.50872522e-03 -3.50185838e-02 -1.45506246e-01  1.21558525e-06 -9.70488208e-07
 -4.80775573e-02 -8.87080699e-02  8.43435175e-08 -3.73297202e-07  8.73668903e-03
  2.82367248e-03  1.82239216e-01  7.89859786e-07  1.27390202e-07  5.49637905e-02
  1.06106392e-01  3.80589736e-08  3.89324795e-07  1.21098230e-06 -3.61421637e-02
 -4.97733275e-06  5.40550757e-07  8.43594547e-08 -8.11654699e-02 -6.42121427e-06
 -9.48149129e-08 -3.07720502e-08  7.90911404e-07  2.53406062e-01  2.53319565e-07
 -6.10736230e-07  1.39804987e-06  2.32077131e-01 -7.93791660e-07  5.90060950e-07
 -3.09880628e-06 -5.02339311e-06  2.39284561e-01  2.49391803e-06 -2.87546093e-06
 -6.47700111e-06  2.74605895e-01  3.81823107e-07 -2.49059226e-07  8.19527422e-07
  2.67494542e-07  2.39284561e-01  1.44599132e-07  2.52378515e-07 -7.56358617e-07
  2.74605895e-01 -6.12005041e-02  5.81916738e-02 -1.09386774e-01  1.74029779e-01
  1.60663219e-06  1.79381544e-01 -6.78461467e-02  1.56731732e-01  1.68125603e-06
  9.34626912e-03 -1.32647680e-02  3.01320446e-02 -1.11354879e-02 -4.44658623e-07
 -5.15619075e-02  3.26812310e-02 -4.35854594e-02 -7.72247555e-07  1.84439293e-01
  7.37341576e-03  1.66272534e-02 -9.95366874e-02  1.42990458e-01  1.98507461e-06
  6.58565827e-02 -5.75889484e-02  1.31179281e-01  2.19935046e-06  2.01163471e-02
 -2.10567341e-02  6.03244716e-02 -2.15544058e-02  1.12431151e-09 -4.64373290e-02
  3.96484381e-02 -4.68298138e-02 -2.56028175e-07  1.34370443e-01  1.08385906e-01
 -6.12005082e-02  5.81916783e-02 -1.09390638e-01 -1.74027348e-01 -4.72823467e-06
  1.79381553e-01 -6.78496256e-02 -1.56730224e-01 -4.00692250e-06  9.34626931e-03
 -1.32647675e-02  3.01322903e-02  1.11348199e-02 -3.95132958e-08 -5.15619020e-02
  3.26821954e-02  4.35847365e-02  8.21897768e-07 -2.84922150e-02 -4.27050104e-02
  1.84439295e-01  7.37341174e-03  1.66272579e-02 -9.95398510e-02 -1.42988241e-01
 -3.19131773e-06  6.58565896e-02 -5.75918535e-02 -1.31177995e-01 -2.52776943e-06
  2.01163458e-02 -2.10567318e-02  6.03249386e-02  2.15530638e-02  8.10278478e-07
 -4.64373225e-02  3.96494689e-02  4.68289311e-02  1.48532183e-06 -4.27050093e-02
 -3.99170969e-02  1.34370436e-01  1.08385892e-01  9.34626912e-03 -1.32647680e-02
 -3.01320446e-02  1.11354879e-02 -1.09825642e-07 -5.15619075e-02 -3.26812310e-02
  4.35854594e-02  6.37837396e-07 -6.12005040e-02  5.81916737e-02  1.09386774e-01
 -1.74029778e-01 -3.40544066e-06  1.79381544e-01  6.78461467e-02 -1.56731732e-01
 -3.07300096e-06  2.39983372e-02  3.36595168e-02 -1.92711317e-02 -1.69343651e-02
  1.84439293e-01  2.01163471e-02 -2.10567341e-02 -6.03244716e-02  2.15544059e-02
  3.02920668e-07 -4.64373291e-02 -3.96484381e-02  4.68298139e-02  1.05994280e-06
  7.37341564e-03  1.66272534e-02  9.95366876e-02 -1.42990458e-01 -2.29221218e-06
  6.58565830e-02  5.75889485e-02 -1.31179281e-01 -2.00612407e-06  3.36595168e-02
  4.24178089e-02 -1.69343652e-02 -1.15942868e-02  1.34370443e-01  1.08385906e-01
  9.34626931e-03 -1.32647675e-02 -3.01322903e-02 -1.11348199e-02 -5.12075365e-07
 -5.15619021e-02 -3.26821954e-02 -4.35847365e-02 -9.28314212e-07 -6.12005081e-02
  5.81916782e-02  1.09390638e-01  1.74027348e-01  2.87826926e-06  1.79381553e-01
  6.78496256e-02  1.56730224e-01  2.60317273e-06 -1.92711317e-02 -1.69343652e-02
  2.39983364e-02  3.36595106e-02 -2.84922150e-02 -4.27050103e-02  1.84439295e-01
  2.01163458e-02 -2.10567318e-02 -6.03249387e-02 -2.15530638e-02 -4.50757352e-07
 -4.64373227e-02 -3.96494690e-02 -4.68289312e-02 -5.94241969e-07  7.37341161e-03
  1.66272580e-02  9.95398511e-02  1.42988241e-01  2.89936062e-06  6.58565899e-02
  5.75918536e-02  1.31177996e-01  2.77834250e-06 -1.69343652e-02 -1.15942868e-02
  3.36595106e-02  4.24177973e-02 -4.27050093e-02 -3.99170969e-02  1.34370436e-01
  1.08385893e-01
