Generated by Psi4
        SP                           RHF                   6-31+G(D,P)
Number of atoms                            I                6
Charge                                     I                0
Multiplicity                               I                1
Number of electrons                        I               16
Number of alpha electrons                  I                8
Number of beta electrons                   I                8
Number of basis functions                  I               58
Number of independent functions            I               58
Atomic numbers                             I   N=           6
           6           6           1           1           1           1
Nuclear charges                            R   N=           6
  6.00000000e+00  6.00000000e+00  1.00000000e+00  1.00000000e+00  1.00000000e+00
  1.00000000e+00
Current cartesian coordinates              R   N=          18
 -1.23401988e+00  1.36693481e-05 -1.25586963e-06  1.23401988e+00 -1.36694558e-05
  6.19077709e-06 -2.32286583e+00  1.73063001e+00  4.51805082e-06 -2.32290431e+00
 -1.73057843e+00 -5.87585590e-05  2.32286583e+00 -1.73063001e+00 -3.33628815e-05
  2.32290431e+00  1.73057843e+00  2.88442920e-05
Integer atomic weights                     I   N=           6
          12          12           1           1           1           1
Real atomic weights                        R   N=           6
  1.20000000e+01  1.20000000e+01  1.00782503e+00  1.00782503e+00  1.00782503e+00
  1.00782503e+00
Number of primitive shells                 I               54
Number of contracted shells                I               28
Pure/Cartesian d shells                    I                1
Pure/Cartesian f shells                    I                1
Highest angular momentum                   I                2
Largest degree of contraction              I                6
Shell types                                I   N=          28
           0           0           1           0           1           2
           0           1           0           0           1           0
           1           2           0           1           0           0
           1           0           0           1           0           0
           1           0           0           1
Number of primitives per shell             I   N=          28
           6           3           3           1           1           1
           1           1           6           3           3           1
           1           1           1           1           3           1
           1           3           1           1           3           1
           1           3           1           1
Shell to atom map                          I   N=          28
           1           1           1           1           1           1
           1           1           2           2           2           2
           2           2           2           2           3           3
           3           4           4           4           5           5
           5           6           6           6
Primitive exponents                        R   N=          54
  3.04752490e+03  4.57369510e+02  1.03948690e+02  2.92101550e+01  9.28666300e+00
  3.16392700e+00  7.86827240e+00  1.88128850e+00  5.44249300e-01  7.86827240e+00
  1.88128850e+00  5.44249300e-01  1.68714400e-01  1.68714400e-01  8.00000000e-01
  4.38000000e-02  4.38000000e-02  3.04752490e+03  4.57369510e+02  1.03948690e+02
  2.92101550e+01  9.28666300e+00  3.16392700e+00  7.86827240e+00  1.88128850e+00
  5.44249300e-01  7.86827240e+00  1.88128850e+00  5.44249300e-01  1.68714400e-01
  1.68714400e-01  8.00000000e-01  4.38000000e-02  4.38000000e-02  1.87311370e+01
  2.82539370e+00  6.40121700e-01  1.61277800e-01  1.10000000e+00  1.87311370e+01
  2.82539370e+00  6.40121700e-01  1.61277800e-01  1.10000000e+00  1.87311370e+01
  2.82539370e+00  6.40121700e-01  1.61277800e-01  1.10000000e+00  1.87311370e+01
  2.82539370e+00  6.40121700e-01  1.61277800e-01  1.10000000e+00
Contraction coefficients                   R   N=          54
  1.83470016e-03  1.40373012e-02  6.88426061e-02  2.32184421e-01  4.67941342e-01
  3.62312032e-01 -1.19332409e-01 -1.60854212e-01  1.14345648e+00  6.89990956e-02
  3.16423980e-01  7.44308252e-01  1.00000000e+00  1.00000000e+00  1.00000000e+00
  1.00000000e+00  1.00000000e+00  1.83470016e-03  1.40373012e-02  6.88426061e-02
  2.32184421e-01  4.67941342e-01  3.62312032e-01 -1.19332409e-01 -1.60854212e-01
  1.14345648e+00  6.89990956e-02  3.16423980e-01  7.44308252e-01  1.00000000e+00
  1.00000000e+00  1.00000000e+00  1.00000000e+00  1.00000000e+00  3.34945995e-02
  2.34726947e-01  8.13757318e-01  1.00000000e+00  1.00000000e+00  3.34945995e-02
  2.34726947e-01  8.13757318e-01  1.00000000e+00  1.00000000e+00  3.34945995e-02
  2.34726947e-01  8.13757318e-01  1.00000000e+00  1.00000000e+00  3.34945995e-02
  2.34726947e-01  8.13757318e-01  1.00000000e+00  1.00000000e+00
Coordinates of each shell                  R   N=          84
 -1.23401988e+00  1.36693481e-05 -1.25586963e-06 -1.23401988e+00  1.36693481e-05
 -1.25586963e-06 -1.23401988e+00  1.36693481e-05 -1.25586963e-06 -1.23401988e+00
  1.36693481e-05 -1.25586963e-06 -1.23401988e+00  1.36693481e-05 -1.25586963e-06
 -1.23401988e+00  1.36693481e-05 -1.25586963e-06 -1.23401988e+00  1.36693481e-05
 -1.25586963e-06 -1.23401988e+00  1.36693481e-05 -1.25586963e-06  1.23401988e+00
 -1.36694558e-05  6.19077709e-06  1.23401988e+00 -1.36694558e-05  6.19077709e-06
  1.23401988e+00 -1.36694558e-05  6.19077709e-06  1.23401988e+00 -1.36694558e-05
  6.19077709e-06  1.23401988e+00 -1.36694558e-05  6.19077709e-06  1.23401988e+00
 -1.36694558e-05  6.19077709e-06  1.23401988e+00 -1.36694558e-05  6.19077709e-06
  1.23401988e+00 -1.36694558e-05  6.19077709e-06 -2.32286583e+00  1.73063001e+00
  4.51805082e-06 -2.32286583e+00  1.73063001e+00  4.51805082e-06 -2.32286583e+00
  1.73063001e+00  4.51805082e-06 -2.32290431e+00 -1.73057843e+00 -5.87585590e-05
 -2.32290431e+00 -1.73057843e+00 -5.87585590e-05 -2.32290431e+00 -1.73057843e+00
 -5.87585590e-05  2.32286583e+00 -1.73063001e+00 -3.33628815e-05  2.32286583e+00
 -1.73063001e+00 -3.33628815e-05  2.32286583e+00 -1.73063001e+00 -3.33628815e-05
  2.32290431e+00  1.73057843e+00  2.88442920e-05  2.32290431e+00  1.73057843e+00
  2.88442920e-05  2.32290431e+00  1.73057843e+00  2.88442920e-05
Total Energy                               R     -7.804260063577543e+01
Alpha Orbital Energies                     R   N=          58
 -1.12328126e+01 -1.12308955e+01 -1.04345863e+00 -7.92734408e-01 -6.44666423e-01
 -5.95557631e-01 -5.01882794e-01 -3.82179226e-01  9.17385818e-02  9.60646872e-02
  1.08335456e-01  1.17416884e-01  1.36103251e-01  1.44248765e-01  1.59428298e-01
  2.28076992e-01  2.44812970e-01  3.24633602e-01  3.39719571e-01  3.98210719e-01
  5.02922405e-01  5.24798877e-01  7.51006533e-01  8.57539783e-01  8.99048485e-01
  9.75064680e-01  1.00867283e+00  1.04603703e+00  1.12666943e+00  1.18375347e+00
  1.22017394e+00  1.25650313e+00  1.41158170e+00  1.45519350e+00  1.64166752e+00
  1.66445621e+00  1.80957220e+00  2.14010805e+00  2.24374455e+00  2.30949232e+00
  2.35440272e+00  2.38509748e+00  2.45738278e+00  2.53479020e+00  2.68799509e+00
  2.75300580e+00  2.87754067e+00  2.97282501e+00  3.01557644e+00  3.07699097e+00
  3.10901860e+00  3.41912804e+00  3.54386903e+00  3.73577486e+00  3.86548949e+00
  4.19824942e+00  4.66394111e+00  4.94470131e+00
Alpha MO coefficients                      R   N=        3364
  7.03772254e-01  1.93354146e-02 -7.59280140e-05  8.20779891e-10 -3.39038194e-09
 -5.43610669e-03  2.45034874e-04 -2.65490931e-09  7.15409223e-09 -1.12537695e-03
 -1.44150549e-03 -1.79719739e-03 -3.98381551e-09  6.31515938e-09  7.53880576e-09
  6.14271778e-04  7.25814269e-04 -7.99081519e-09  7.09037721e-09  7.03772329e-01
  1.93354167e-02  7.59279993e-05 -8.20755580e-10  8.31218633e-10 -5.43610793e-03
 -2.45034640e-04  2.65520093e-09 -1.62307507e-09 -1.12537702e-03 -1.44150558e-03
 -1.79719757e-03 -3.98373149e-09  2.44923312e-09  7.35139075e-09  6.14273885e-04
 -7.25814814e-04  7.99085649e-09 -8.56147003e-10 -9.61652410e-05  8.53854134e-04
  1.31089035e-05  1.57088065e-04  4.17971227e-10 -9.61653150e-05  8.53854262e-04
  1.31054054e-05 -1.57088392e-04 -5.30476517e-09 -9.61652524e-05  8.53854232e-04
 -1.31088877e-05 -1.57088095e-04 -4.17330229e-09 -9.61653262e-05  8.53854358e-04
 -1.31053894e-05  1.57088422e-04  1.49421846e-09  7.04292753e-01  1.97569172e-02
  1.37638808e-04 -1.51727048e-09 -3.85718469e-09 -1.18056636e-02 -2.21708719e-03
  2.45280017e-08  4.60505383e-09 -7.25314609e-04 -9.05209477e-04 -1.73687072e-03
 -2.27791095e-09  1.15582355e-08  1.75041517e-08  1.97399348e-02  5.11866035e-03
 -5.67115661e-08  2.55874809e-08 -7.04292678e-01 -1.97569151e-02  1.37638817e-04
 -1.51718863e-09 -1.99304934e-09  1.18056630e-02 -2.21708722e-03  2.45260441e-08
 -1.33928715e-08  7.25314488e-04  9.05209323e-04  1.73687052e-03  2.27774635e-09
  1.38319279e-09 -1.73114790e-08 -1.97399347e-02  5.11866027e-03 -5.67123107e-08
  6.72334709e-09 -1.07563248e-04  9.55875947e-04 -1.36910459e-04  2.75822914e-04
 -2.46610057e-10 -1.07563283e-04  9.55875929e-04 -1.36916566e-04 -2.75819873e-04
 -1.03264669e-08  1.07563237e-04 -9.55875853e-04 -1.36910461e-04  2.75822898e-04
  7.28262509e-09  1.07563272e-04 -9.55875832e-04 -1.36916568e-04 -2.75819858e-04
 -2.63695554e-09  1.59209461e-01 -3.01884308e-01 -1.17632866e-01  1.30243587e-06
  3.75047376e-07 -2.20256571e-01 -9.38272973e-03  1.05314032e-07  2.08465956e-07
 -1.47094883e-02  5.24744010e-03  1.31438556e-02  2.54967469e-07 -1.61106139e-07
 -1.66942660e-07  9.20337866e-04 -1.66000561e-04  2.67241265e-09 -2.59159982e-09
  1.59209461e-01 -3.01884308e-01  1.17632866e-01 -1.30245331e-06  8.68183605e-07
 -2.20256571e-01  9.38272978e-03 -1.05325746e-07  1.81046869e-07 -1.47094883e-02
  5.24744010e-03  1.31438556e-02  2.54965694e-07 -7.27072365e-08 -1.63621528e-07
  9.20338752e-04  1.66000341e-04 -2.67386688e-09  3.94371547e-09 -8.34724002e-02
 -2.03966756e-02 -6.01097597e-03  7.45633532e-03  1.78150458e-08 -8.34723994e-02
 -2.03966731e-02 -6.01114160e-03 -7.45620132e-03 -2.55006870e-07 -8.34723999e-02
 -2.03966757e-02  6.01097596e-03 -7.45633531e-03 -1.65451752e-07 -8.34723992e-02
 -2.03966731e-02  6.01114159e-03  7.45620131e-03  1.02370309e-07  1.19768650e-01
 -2.33417550e-01  1.65818292e-01 -1.83487887e-06  2.30592098e-06 -2.33331808e-01
  5.60598570e-02 -6.20403118e-07  7.75366509e-07  4.41856995e-03 -1.31848174e-02
  1.05497844e-02 -2.26341277e-07 -2.55240565e-07 -5.00482336e-07  2.23225499e-01
  5.78953743e-02 -6.41150294e-07  6.55307267e-10 -1.19768650e-01  2.33417551e-01
  1.65818291e-01 -1.83485527e-06 -1.22727829e-07  2.33331808e-01  5.60598568e-02
 -6.20360848e-07 -9.48961982e-08 -4.41856991e-03  1.31848174e-02 -1.05497844e-02
  2.26345357e-07 -1.34065022e-07  4.93115373e-07 -2.23225499e-01  5.78953743e-02
 -6.41139093e-07  3.29575576e-07 -1.48900830e-01 -7.94484778e-02 -4.83584656e-03
  1.04765047e-02  3.64578668e-08 -1.48900840e-01 -7.94484816e-02 -4.83607998e-03
 -1.04763974e-02 -3.47091136e-07  1.48900830e-01  7.94484777e-02 -4.83584657e-03
  1.04765047e-02  2.54508249e-07  1.48900840e-01  7.94484815e-02 -4.83607999e-03
 -1.04763974e-02 -1.21576122e-07 -1.04534020e-09  1.87602308e-09  3.52923179e-06
  3.18326126e-01  5.79715883e-06  4.99535461e-09  1.36227619e-06  1.22927972e-01
  2.23787248e-06 -1.32544264e-07  1.33219648e-07 -1.46561341e-10 -6.84219644e-03
 -1.26871390e-07 -4.25318070e-07 -1.16635931e-08  2.59921104e-08  2.65251334e-03
  4.48096007e-08  1.04298858e-09 -1.87690244e-09  3.52909934e-06  3.18326125e-01
  5.74354057e-06 -4.98035409e-09  1.36224129e-06  1.22927972e-01  2.21879839e-06
  1.32547779e-07 -1.33204172e-07  1.27555781e-10  6.84219638e-03  1.21190402e-07
 -1.94913428e-07  1.16655773e-08  2.59945059e-08  2.65251332e-03  5.13554657e-08
  1.58490220e-01  1.11288704e-01  6.64434567e-03 -6.25107511e-03  5.13023434e-08
 -1.58490212e-01 -1.11288698e-01 -6.64448485e-03 -6.25092698e-03 -2.80830137e-07
 -1.58490220e-01 -1.11288703e-01  6.64434566e-03 -6.25107512e-03 -1.66781042e-07
  1.58490212e-01  1.11288698e-01 -6.64448484e-03 -6.25092699e-03 -5.69428404e-08
  1.08960517e-02 -2.62485054e-02 -4.07172463e-01  4.48603762e-06 -4.65366602e-06
  1.77903854e-02 -1.42537543e-01  1.56449231e-06 -1.87482080e-06 -1.37992899e-02
  2.36561054e-02 -1.18910481e-03  4.82681227e-07  7.64158373e-08  5.23409294e-07
  5.58123433e-03 -1.38955501e-02  1.53601474e-07 -6.17601206e-08  1.08960515e-02
 -2.62485049e-02  4.07172463e-01 -4.48583284e-06 -1.11755049e-06  1.77903859e-02
  1.42537543e-01 -1.56439754e-06 -4.99956413e-07 -1.37992899e-02  2.36561055e-02
 -1.18910481e-03  4.82682187e-07  5.61135128e-09  5.16682169e-07  5.58124479e-03
  1.38955474e-02 -1.53597677e-07 -2.35857928e-08  1.27361163e-01  1.01552394e-01
 -1.94427811e-03 -6.79950897e-03 -8.53702258e-08  1.27361206e-01  1.01552422e-01
 -1.94412533e-03  6.79955374e-03  1.63434642e-07  1.27361163e-01  1.01552395e-01
  1.94427810e-03  6.79950898e-03  1.38481091e-07  1.27361207e-01  1.01552422e-01
  1.94412532e-03 -6.79955376e-03 -1.05738937e-07  3.18844442e-09 -8.26002974e-09
  3.28022639e-06  2.99567186e-01  5.55001849e-06 -5.28441680e-09  2.18378808e-06
  1.98372619e-01  3.66191202e-06 -6.17887889e-07  6.19429629e-07 -3.38327559e-10
 -3.20458311e-02 -5.77149478e-07 -6.05569141e-07  1.96792817e-09  3.00866331e-07
  2.73152160e-02  5.02064266e-07  3.19531953e-09 -8.26307436e-09 -3.28022553e-06
 -2.99567186e-01 -5.31058785e-06 -5.39628116e-09 -2.18373841e-06 -1.98372619e-01
 -3.52995361e-06 -6.17889148e-07  6.19403092e-07 -3.13792406e-10 -3.20458310e-02
 -5.84655768e-07  1.36048725e-07  5.39869488e-10 -3.00491591e-07 -2.73152160e-02
 -4.88230499e-07  1.91615272e-01  1.52911523e-01  4.93469214e-03 -5.41830404e-03
  4.01261613e-08 -1.91615244e-01 -1.52911493e-01 -4.93481354e-03 -5.41819240e-03
 -2.35191041e-07  1.91615272e-01  1.52911524e-01 -4.93469215e-03  5.41830407e-03
  1.46790654e-07 -1.91615244e-01 -1.52911493e-01  4.93481355e-03  5.41819244e-03
  5.10143546e-08 -6.91737217e-07  1.43073675e-06 -5.18562289e-06 -6.93027723e-06
  3.76306372e-01  2.30160969e-06 -3.01814136e-06 -4.98488898e-06  2.71059302e-01
 -1.78954778e-07  1.60584092e-07  1.31050864e-07 -4.80732037e-07  2.71078387e-02
 -3.00290667e-07 -5.46549957e-07 -1.08855660e-06 -8.85154646e-07  4.75106299e-02
 -1.15142292e-07  1.09501114e-07  2.17887146e-06 -6.71242364e-06  3.76306372e-01
  1.14150623e-06  5.85516484e-07 -4.84215662e-06  2.71059302e-01  9.92391051e-08
  1.15756187e-07 -1.15808967e-07  5.02040273e-07 -2.71078387e-02  3.00296001e-07
  1.52492984e-06  1.16937805e-07 -8.37300494e-07  4.75106299e-02 -1.01299528e-07
  6.75485244e-07 -1.82128391e-07 -1.06823739e-07  8.73692960e-03 -1.60977451e-09
  8.00063369e-07 -1.81345421e-07 -2.10553733e-07  8.73692969e-03  1.08788756e-07
  5.54671902e-07  7.86994575e-08 -1.75439749e-07  8.73692959e-03  2.08478552e-07
  6.79250088e-07  7.79157147e-08 -1.40683501e-07  8.73692969e-03  2.71810473e-02
 -7.74173224e-02  2.74944647e-02 -3.01950902e-07  8.47221061e-07  8.04101429e-02
  1.84821317e-01 -2.04634896e-06  1.70802441e-06  1.14635520e-02 -6.17908554e-03
 -2.43913674e-03 -2.25674907e-07 -2.15728606e-08 -7.91076282e-08 -1.66081264e+01
 -5.10297531e+00  5.65177481e-05 -1.85821688e-05 -2.71810501e-02  7.74173266e-02
  2.74944717e-02 -3.01965056e-07 -5.56695327e-07 -8.04101234e-02  1.84821327e-01
 -2.04548683e-06 -3.27572818e-07 -1.14635524e-02  6.17908560e-03  2.43913588e-03
  2.25681490e-07 -1.03915007e-07  7.74583697e-08  1.66081264e+01 -5.10297539e+00
  5.65190030e-05 -1.32326105e-05 -7.59294597e-03 -1.81063226e-02 -6.39784990e-03
  2.13629566e-03  4.74751501e-09 -7.59294373e-03 -1.81063335e-02 -6.39789802e-03
 -2.13615407e-03 -7.33025300e-08  7.59294677e-03  1.81063447e-02 -6.39785034e-03
  2.13629629e-03  1.29382193e-08  7.59294458e-03  1.81063539e-02 -6.39789843e-03
 -2.13615467e-03 -6.39065550e-08  3.19979108e-02 -4.22615608e-02  7.47614833e-02
 -8.27370532e-07  1.88517707e-06 -2.52655202e-01  1.02691738e-01 -1.16341325e-06
  1.47819548e-06  4.94081404e-03  1.16890484e-03  1.04038267e-02 -4.82658785e-08
 -1.36172456e-07 -1.94319679e-07  8.88311765e-01 -7.81969739e-01  8.58695963e-06
 -3.40118062e-06  3.19979078e-02 -4.22615533e-02 -7.47614804e-02  8.27342042e-07
 -7.45909356e-07 -2.52655206e-01 -1.02691721e-01  1.16340701e-06 -5.69559314e-07
  4.94081278e-03  1.16890529e-03  1.04038269e-02 -4.82646770e-08 -1.06973094e-07
 -1.92278144e-07  8.88313045e-01  7.81969328e-01 -8.58673370e-06 -6.10168368e-06
 -9.66318313e-03 -1.87894335e-01 -4.11516092e-03  6.12400799e-03  5.21501825e-08
 -9.66318391e-03 -1.87894391e-01 -4.11529829e-03 -6.12391750e-03 -1.72010326e-07
 -9.66318254e-03 -1.87894328e-01  4.11516025e-03 -6.12400768e-03 -2.13004828e-07
 -9.66318330e-03 -1.87894385e-01  4.11529762e-03  6.12391719e-03  6.87496219e-09
 -9.59092358e-07  1.85726031e-06 -2.56636196e-06 -3.54232198e-06  1.94705154e-01
  3.76476862e-06 -3.85099955e-06 -3.38674524e-06  1.86331962e-01  7.89830506e-08
 -3.58418744e-08 -1.16139325e-07  3.07445465e-07 -1.71343366e-02  1.89794859e-07
 -5.38685595e-05 -1.55887918e-05 -2.96181673e-05  1.62536525e+00  4.64874292e-07
 -1.17471138e-06  4.77303124e-07  3.51654862e-06 -1.94705154e-01  1.47069821e-07
 -8.05574192e-07  3.36856073e-06 -1.86331962e-01  7.23425791e-08  5.30543002e-09
 -1.39414492e-07  3.13746050e-07 -1.71343366e-02  1.89796198e-07  4.74349361e-05
 -1.06087908e-05  2.93082998e-05 -1.62536525e+00 -1.31122433e-06  4.11682657e-07
 -3.38984245e-08 -2.17179534e-07  1.15358240e-02 -1.34552527e-06  2.92276401e-07
 -3.33470098e-08 -2.06287027e-07  1.15358247e-02  7.90193270e-07  6.69086209e-07
  3.48911195e-08  2.38531906e-07 -1.15358240e-02  8.24494176e-07  7.88492867e-07
  3.54416970e-08  1.74447094e-07 -1.15358247e-02 -3.65270905e-10  3.10775422e-09
  1.13596470e-06  1.02498047e-01  1.83233392e-06 -1.93826533e-08  1.87056221e-06
  1.69722927e-01  3.04339275e-06  4.61443655e-08 -4.61202486e-08  4.41746996e-10
  2.44138704e-03  4.64499096e-08 -1.29957643e-07 -9.54489711e-08 -7.29619691e-06
 -6.57293618e-01 -1.23730176e-05  3.67079803e-10 -3.10823421e-09  1.13595898e-06
  1.02498047e-01  1.88366374e-06  1.93413110e-08  1.87053632e-06  1.69722926e-01
  3.10979757e-06 -4.61431154e-08  4.61267336e-08 -4.47184757e-10 -2.44138704e-03
 -4.20604773e-08 -9.00654620e-08  9.54467962e-08 -7.29608765e-06 -6.57293620e-01
 -1.14567199e-05 -1.46407438e-03  1.48900430e-01  3.19238198e-03 -5.42690207e-03
 -5.20299559e-08  1.46407351e-03 -1.48900407e-01 -3.19250188e-03 -5.42683096e-03
 -1.49707710e-07  1.46407435e-03 -1.48900431e-01  3.19238199e-03 -5.42690207e-03
 -1.01517507e-07 -1.46407349e-03  1.48900408e-01 -3.19250189e-03 -5.42683097e-03
 -9.02396080e-08 -1.73791745e-08  2.57200077e-07 -9.55371495e-07 -2.00035271e-06
  1.12281696e-01 -1.19326206e-07 -3.17340230e-06 -5.23527827e-06  2.83183020e-01
 -1.54705805e-07  9.15075147e-08  8.97434692e-08 -1.93401506e-07  1.06287520e-02
 -1.17783035e-07  4.34862028e-05  3.00395248e-05  1.02611245e-05 -6.18725843e-01
  9.97422422e-09  1.41036615e-07  3.12240104e-07 -2.07033743e-06  1.12281696e-01
  5.03846575e-08  7.79014322e-07 -5.03130486e-06  2.83183020e-01 -1.69535469e-08
  9.20479163e-08 -1.06646141e-08  1.91934991e-07 -1.06287520e-02  1.17784745e-07
 -5.05947522e-05 -8.05632229e-07  1.21700404e-05 -6.18725842e-01  2.21076080e-07
 -1.14237345e-06  1.72486654e-08  9.20060735e-08 -2.30632677e-03  2.12981532e-07
 -1.52733381e-06  9.14083405e-09 -1.51285363e-08 -2.30632682e-03  1.24412626e-07
  1.12092127e-07 -1.33213328e-08  2.11372189e-08 -2.30632677e-03  1.16318099e-07
 -2.72868168e-07 -5.21415830e-09  6.92138030e-08 -2.30632682e-03  5.07853587e-10
 -8.77765536e-10  1.02034925e-06  9.21578368e-02  1.62415940e-06  1.32429644e-08
 -1.89109541e-06 -1.68955872e-01 -3.21522447e-06 -2.39533535e-08  2.46182131e-08
 -3.20637287e-10 -1.22275243e-03 -2.65712345e-08 -3.41695996e-10 -3.24409276e-08
 -2.81707836e-05 -2.54347377e+00 -4.58980701e-05  5.44779155e-10 -8.90851657e-10
 -1.02036989e-06 -9.21578368e-02 -1.71696093e-06  1.27581583e-08  1.89111282e-06
  1.68955872e-01  2.91015717e-06 -2.39466444e-08  2.46292846e-08 -3.11555731e-10
 -1.22275242e-03 -1.77593666e-08 -4.81453797e-08 -1.59798864e-08  2.81667935e-05
  2.54347377e+00  4.63138590e-05  1.52248911e-02  4.45582607e-01  8.57193573e-03
 -7.68332830e-03  4.35558921e-09 -1.52248875e-02 -4.45582592e-01 -8.57210617e-03
 -7.68313823e-03 -2.83773717e-07  1.52248910e-02  4.45582606e-01 -8.57193572e-03
  7.68332829e-03  1.86464175e-07 -1.52248874e-02 -4.45582592e-01  8.57210617e-03
  7.68313824e-03  9.12185964e-08  4.06853145e-02 -1.63411782e-02 -1.15061788e-02
  1.19472657e-07 -5.47968048e-07 -5.06775881e-01 -3.62372977e-02  4.12544735e-07
 -2.81099505e-06 -5.45751585e-03  2.09700157e-02  2.10706033e-02  3.38442181e-07
 -1.88589040e-07 -1.82552458e-09  2.68444590e-01  1.39613035e+00 -1.54312682e-05
  8.97181227e-06  4.06853151e-02 -1.63411787e-02  1.15061782e-02 -1.19445479e-07
 -6.61484071e-07 -5.06775886e-01  3.62372957e-02 -4.12384848e-07 -2.15564928e-06
 -5.45751562e-03  2.09700159e-02  2.10706034e-02  3.38441839e-07 -2.72667553e-08
 -2.38296930e-09  2.68444967e-01 -1.39613045e+00  1.54311082e-05 -3.81845127e-07
  3.95471500e-03 -6.33370354e-02  2.51255024e-03  6.84100138e-03  7.69146241e-08
  3.95471386e-03 -6.33369963e-02  2.51239938e-03 -6.84105643e-03 -1.73323641e-07
  3.95471527e-03 -6.33370392e-02 -2.51255019e-03 -6.84100147e-03 -1.56990328e-07
  3.95471412e-03 -6.33370002e-02 -2.51239932e-03  6.84105652e-03  8.88051973e-08
  4.37232000e-02 -3.32708944e-02  4.89288417e-02 -5.46458205e-07  5.14111529e-06
 -4.24720344e-01  2.24355247e-01 -2.48659568e-06  8.29170537e-06  1.37464956e-02
  9.03171274e-03  1.12404929e-02 -6.15623065e-08 -3.52543046e-07 -4.74929142e-08
  4.06399048e+01  1.05433465e+01 -1.16791096e-04  1.15994183e-05 -4.37232007e-02
  3.32708944e-02  4.89288451e-02 -5.46353367e-07 -4.89467089e-06  4.24720364e-01
  2.24355258e-01 -2.48885947e-06 -8.31858785e-06 -1.37464960e-02 -9.03171284e-03
 -1.12404929e-02  6.15537096e-08 -3.33076082e-07  4.49728064e-08 -4.06399048e+01
  1.05433465e+01 -1.16792232e-04  5.25475016e-05  1.61215120e-02 -2.35447673e-01
 -3.40206349e-03  6.96805954e-03  2.32481849e-07  1.61215064e-02 -2.35447689e-01
 -3.40221751e-03 -6.96798434e-03 -2.16055745e-08 -1.61215119e-02  2.35447653e-01
 -3.40206343e-03  6.96805938e-03 -2.54680932e-08 -1.61215066e-02  2.35447673e-01
 -3.40221751e-03 -6.96798421e-03 -2.76622553e-07 -2.14484165e-06  2.84214071e-06
 -4.30305303e-06 -5.86065364e-06  3.19472565e-01  1.83010360e-05 -1.88204224e-05
 -1.46135020e-05  7.95436987e-01 -2.29257608e-07 -3.18867374e-07 -2.78095680e-07
  3.01119842e-07 -1.71600446e-02  1.90060814e-07 -4.30690213e-04 -1.06735394e-04
  2.78988999e-05 -1.54048284e+00  1.42896562e-06 -2.30743508e-06 -2.10015391e-07
  5.72156374e-06 -3.19472565e-01 -6.21285144e-06 -7.56567649e-06  1.42244057e-05
 -7.95436987e-01  3.77525121e-07  1.40080391e-07  7.66521303e-08  3.21001837e-07
 -1.71600446e-02  1.90063574e-07  4.32039607e-04 -1.18487720e-04 -2.79501377e-05
  1.54048284e+00 -2.20328581e-06 -1.10995694e-05 -4.91739270e-08 -1.69360283e-07
  1.02110816e-02 -2.27141377e-06 -1.15337660e-05 -4.63651558e-08 -2.06427210e-07
  1.02110823e-02  1.18560386e-06  3.11927154e-06  9.26298513e-08  1.64006196e-07
 -1.02110816e-02  1.25373178e-06  3.55346783e-06  9.54394601e-08  2.00594973e-07
 -1.02110823e-02  6.45197050e-02 -2.22063943e-02  1.36186537e-01 -1.52215314e-06
  3.49763518e-06 -1.55107607e+00  7.60936438e-01 -8.54200483e-06  1.83888647e-05
  2.37888298e-03  1.96949739e-02 -9.65997553e-03  2.21924430e-07 -5.30729209e-08
  6.13627428e-07 -5.55681513e-01 -4.56019925e-02  5.10312819e-07  2.47495927e-06
  6.45197045e-02 -2.22063940e-02 -1.36186537e-01  1.52162194e-06 -4.52277887e-07
 -1.55107606e+00 -7.60936432e-01  8.53989603e-06 -1.93338891e-06  2.37888292e-03
  1.96949739e-02 -9.65997569e-03  2.21998428e-07 -1.13677371e-07  6.15257469e-07
 -5.55682072e-01  4.56021398e-02 -5.11227123e-07  4.73459867e-06  5.98064946e-02
  1.34324041e+00  7.61770735e-03 -4.85685827e-04  2.26408928e-07  5.98064911e-02
  1.34324030e+00  7.61771758e-03  4.85515684e-04  2.47141224e-07  5.98064947e-02
  1.34324041e+00 -7.61770739e-03  4.85685843e-04  2.00848509e-08  5.98064914e-02
  1.34324030e+00 -7.61771760e-03 -4.85515735e-04  5.60687339e-09  1.06624883e-08
 -1.45466899e-08  2.34683199e-06  2.11861063e-01  3.94035823e-06 -1.22186728e-07
  9.35815860e-06  8.38377750e-01  1.56034070e-05  6.88019256e-07 -6.85041643e-07
 -3.63702880e-10  3.56649033e-02  6.42228888e-07  6.46980655e-07  7.45321271e-07
  4.17642914e-06  3.55294170e-01  6.37923848e-06 -1.05257007e-08  1.45084837e-08
  2.34654449e-06  2.11861064e-01  3.74052210e-06  1.18657883e-07  9.35636324e-06
  8.38377751e-01  1.47914148e-05 -6.88019681e-07  6.85052243e-07  3.63676302e-10
 -3.56649032e-02 -6.50781349e-07  3.64529608e-07 -7.46524627e-07  4.17652159e-06
  3.55294173e-01  6.50171420e-06 -9.65121155e-02 -1.28102073e+00  6.82288981e-03
  5.31564912e-03  2.65891715e-07  9.65121253e-02  1.28102090e+00 -6.82277256e-03
  5.31580035e-03 -6.43417979e-08  9.65121156e-02  1.28102073e+00  6.82288981e-03
  5.31564914e-03 -1.34907670e-08 -9.65121252e-02 -1.28102090e+00 -6.82277260e-03
  5.31580035e-03  1.97376896e-07  8.64298468e-02 -7.55976402e-02  9.27317084e-02
 -1.05266577e-06  5.40227266e-06 -1.47433534e+00  6.84907605e-01 -7.67646169e-06
  2.91366305e-05  6.63264121e-03  9.75530839e-03 -2.45560211e-03  3.83748733e-08
 -1.85406509e-07  2.65913387e-07 -1.41965141e+01 -3.28543591e+00  3.63515397e-05
 -4.21550925e-06 -8.64298468e-02  7.55976406e-02  9.27317083e-02 -1.05223115e-06
 -3.46976186e-06  1.47433533e+00  6.84907603e-01 -7.67222783e-06 -1.93364554e-05
 -6.63264111e-03 -9.75530843e-03  2.45560228e-03 -3.83338130e-08 -4.03621933e-07
 -2.45268210e-07  1.41965141e+01 -3.28543591e+00  3.63539181e-05 -1.26671278e-05
  7.68446337e-02  1.56610305e+00  2.12191026e-03 -1.46965437e-04  2.81419976e-07
  7.68446242e-02  1.56610287e+00  2.12191441e-03  1.46917657e-04  2.82136645e-07
 -7.68446344e-02 -1.56610305e+00  2.12191025e-03 -1.46965326e-04 -2.22742731e-07
 -7.68446247e-02 -1.56610287e+00  2.12191444e-03  1.46917606e-04 -2.12804855e-07
  5.20850072e-09 -1.80627906e-09  3.33288653e-06  2.97670665e-01  5.43875120e-06
 -1.90308596e-07  2.50457175e-05  2.25347951e+00  4.10108361e-05 -4.07577921e-07
  4.08140313e-07  9.42122093e-11 -2.13375263e-02 -3.82553297e-07  5.10035282e-08
 -4.89009855e-08  1.89277160e-05  1.69522138e+00  3.08382546e-05  4.55205139e-09
 -1.68133107e-09 -3.33346689e-06 -2.97670665e-01 -5.35309885e-06 -1.65231886e-07
 -2.50627387e-05 -2.25347951e+00 -4.06875483e-05 -4.07557660e-07  4.08168160e-07
  6.34906325e-11 -2.13375263e-02 -3.91020569e-07  2.92027299e-07 -2.13689557e-08
 -1.89329211e-05 -1.69522138e+00 -3.06208574e-05  1.53855649e-02 -2.16301051e+00
 -4.62357998e-03  4.92972681e-03  4.36985779e-07 -1.53855687e-02  2.16301073e+00
  4.62368683e-03  4.92962456e-03 -2.61194123e-07  1.53855650e-02 -2.16301051e+00
  4.62357992e-03 -4.92972679e-03 -3.15026754e-09 -1.53855687e-02  2.16301072e+00
 -4.62368685e-03 -4.92962451e-03 -1.78502232e-07  9.66392087e-02 -3.79420417e-02
 -1.20604016e-01  1.32905623e-06 -9.91485008e-07 -3.94392728e+00 -3.07933440e+00
  3.40550462e-05 -1.45571811e-05  2.52132771e-03 -2.07196915e-02  5.74501995e-03
 -2.98592242e-07  9.54260271e-08 -5.60353304e-07  4.07612496e+00  1.33719330e+00
 -1.48505697e-05  3.88360452e-06 -9.66392087e-02  3.79420418e-02 -1.20604016e-01
  1.33087079e-06 -5.57878999e-08  3.94392728e+00 -3.07933440e+00  3.40671437e-05
 -4.89280706e-06 -2.52132772e-03  2.07196915e-02 -5.74501997e-03  2.98699595e-07
  1.51830239e-07  5.47535394e-07 -4.07612496e+00  1.33719330e+00 -1.48407609e-05
  3.75057129e-06 -4.03483929e-02 -2.28399563e-01 -8.70117356e-03 -4.34238838e-03
 -1.56439731e-07 -4.03483836e-02 -2.28399801e-01 -8.70107906e-03  4.34258277e-03
  2.79023432e-09  4.03483929e-02  2.28399574e-01 -8.70117358e-03 -4.34238835e-03
 -6.29341908e-08  4.03483838e-02  2.28399788e-01 -8.70107906e-03  4.34258276e-03
  9.27036332e-08  3.17176992e-02  1.34200837e-01  5.74603425e-01 -6.42144379e-06
  2.44320962e-06  2.70337378e-01 -1.19954903e+00  1.32893502e-05 -7.78154568e-06
  7.78504216e-02 -2.19238250e-02 -5.52098304e-03 -1.27285427e-06  4.51251858e-07
 -3.43470076e-07 -9.17075510e-02  7.09588408e-01 -8.02690736e-06  2.86386492e-06
  3.17176993e-02  1.34200837e-01 -5.74603425e-01  6.42146547e-06 -1.84878493e-06
  2.70337375e-01  1.19954903e+00 -1.32893368e-05  3.49611307e-06  7.78504216e-02
 -2.19238250e-02 -5.52098311e-03 -1.27286129e-06  2.68184053e-07 -3.43208289e-07
 -9.17076103e-02 -7.09588392e-01  8.02689811e-06 -2.71854184e-06 -8.85782567e-02
 -1.29258052e-01 -3.68767613e-02  1.25298796e-02 -2.02367599e-07 -8.85782268e-02
 -1.29258289e-01 -3.68770377e-02 -1.25290584e-02 -6.61266403e-07 -8.85782561e-02
 -1.29258051e-01  3.68767613e-02 -1.25298796e-02 -2.70847963e-07 -8.85782263e-02
 -1.29258287e-01  3.68770377e-02  1.25290584e-02  1.78748083e-07 -8.31458626e-10
 -1.92451852e-08  6.41745702e-06  5.75589408e-01  1.04525491e-05 -1.01174302e-07
 -9.98001326e-06 -8.88153555e-01 -1.62560531e-05 -7.52831745e-07  7.42435252e-07
  2.43164599e-10 -3.86112669e-02 -7.00740907e-07 -1.30195088e-06 -1.07495393e-06
  2.86677473e-06  2.81208696e-01  5.17798736e-06  8.29222970e-10  1.90421203e-08
  6.41745694e-06  5.75589408e-01  1.04150584e-05  1.01468580e-07 -9.97999820e-06
 -8.88153549e-01 -1.59433577e-05  7.52808731e-07 -7.42372350e-07 -3.13641304e-10
  3.86112670e-02  6.99092052e-07 -6.34185380e-07  1.07484526e-06  2.86682534e-06
  2.81208696e-01  5.01704348e-06  2.92071563e-01 -4.16588746e-02 -4.44120782e-03
 -4.20285741e-02 -5.07057047e-07 -2.92071588e-01  4.16589345e-02  4.44027055e-03
 -4.20286716e-02 -1.03757671e-06 -2.92071563e-01  4.16588767e-02 -4.44120788e-03