Generated by Psi4
        SP                           RHF                 6-311+G(2D,P)
Number of atoms                            I                6
Charge                                     I                0
Multiplicity                               I                1
Number of electrons                        I               16
Number of alpha electrons                  I                8
Number of beta electrons                   I                8
Number of basis functions                  I               78
Number of independent functions            I               78
Atomic numbers                             I   N=           6
           6           6           1           1           1           1
Nuclear charges                            R   N=           6
  6.00000000e+00  6.00000000e+00  1.00000000e+00  1.00000000e+00  1.00000000e+00
  1.00000000e+00
Current cartesian coordinates              R   N=          18
 -1.23401988e+00  1.36693481e-05 -1.25586963e-06  1.23401988e+00 -1.36694558e-05
  6.19077709e-06 -2.32286583e+00  1.73063001e+00  4.51805082e-06 -2.32290431e+00
 -1.73057843e+00 -5.87585590e-05  2.32286583e+00 -1.73063001e+00 -3.33628815e-05
  2.32290431e+00  1.73057843e+00  2.88442920e-05
Integer atomic weights                     I   N=           6
          12          12           1           1           1           1
Real atomic weights                        R   N=           6
  1.20000000e+01  1.20000000e+01  1.00782503e+00  1.00782503e+00  1.00782503e+00
  1.00782503e+00
Number of primitive shells                 I               64
Number of contracted shells                I               38
Pure/Cartesian d shells                    I                0
Pure/Cartesian f shells                    I                0
Highest angular momentum                   I                2
Largest degree of contraction              I                6
Shell types                                I   N=          38
           0           0           1           0           1           0
           1          -2          -2           0           1           0
           0           1           0           1           0           1
          -2          -2           0           1           0           0
           0           1           0           0           0           1
           0           0           0           1           0           0
           0           1
Number of primitives per shell             I   N=          38
           6           3           3           1           1           1
           1           1           1           1           1           6
           3           3           1           1           1           1
           1           1           1           1           3           1
           1           1           3           1           1           1
           3           1           1           1           3           1
           1           1
Shell to atom map                          I   N=          38
           1           1           1           1           1           1
           1           1           1           1           1           2
           2           2           2           2           2           2
           2           2           2           2           3           3
           3           3           4           4           4           4
           5           5           5           5           6           6
           6           6
Primitive exponents                        R   N=          64
  4.56324000e+03  6.82024000e+02  1.54973000e+02  4.44553000e+01  1.30290000e+01
  1.82773000e+00  2.09642000e+01  4.80331000e+00  1.45933000e+00  2.09642000e+01
  4.80331000e+00  1.45933000e+00  4.83456000e-01  4.83456000e-01  1.45585000e-01
  1.45585000e-01  1.25200000e+00  3.13000000e-01  4.38000000e-02  4.38000000e-02
  4.56324000e+03  6.82024000e+02  1.54973000e+02  4.44553000e+01  1.30290000e+01
  1.82773000e+00  2.09642000e+01  4.80331000e+00  1.45933000e+00  2.09642000e+01
  4.80331000e+00  1.45933000e+00  4.83456000e-01  4.83456000e-01  1.45585000e-01
  1.45585000e-01  1.25200000e+00  3.13000000e-01  4.38000000e-02  4.38000000e-02
  3.38650000e+01  5.09479000e+00  1.15879000e+00  3.25840000e-01  1.02741000e-01
  7.50000000e-01  3.38650000e+01  5.09479000e+00  1.15879000e+00  3.25840000e-01
  1.02741000e-01  7.50000000e-01  3.38650000e+01  5.09479000e+00  1.15879000e+00
  3.25840000e-01  1.02741000e-01  7.50000000e-01  3.38650000e+01  5.09479000e+00
  1.15879000e+00  3.25840000e-01  1.02741000e-01  7.50000000e-01
Contraction coefficients                   R   N=          64
  1.96665025e-03  1.52306019e-02  7.61269097e-02  2.60801033e-01  6.16462078e-01
  2.21006028e-01  1.14660081e-01  9.19999648e-01 -3.03068213e-03  4.02486927e-02
  2.37593957e-01  8.15853851e-01  1.00000000e+00  1.00000000e+00  1.00000000e+00
  1.00000000e+00  1.00000000e+00  1.00000000e+00  1.00000000e+00  1.00000000e+00
  1.96665025e-03  1.52306019e-02  7.61269097e-02  2.60801033e-01  6.16462078e-01
  2.21006028e-01  1.14660081e-01  9.19999648e-01 -3.03068213e-03  4.02486927e-02
  2.37593957e-01  8.15853851e-01  1.00000000e+00  1.00000000e+00  1.00000000e+00
  1.00000000e+00  1.00000000e+00  1.00000000e+00  1.00000000e+00  1.00000000e+00
  2.54938145e-02  1.90373109e-01  8.52161486e-01  1.00000000e+00  1.00000000e+00
  1.00000000e+00  2.54938145e-02  1.90373109e-01  8.52161486e-01  1.00000000e+00
  1.00000000e+00  1.00000000e+00  2.54938145e-02  1.90373109e-01  8.52161486e-01
  1.00000000e+00  1.00000000e+00  1.00000000e+00  2.54938145e-02  1.90373109e-01
  8.52161486e-01  1.00000000e+00  1.00000000e+00  1.00000000e+00
Coordinates of each shell                  R   N=         114
 -1.23401988e+00  1.36693481e-05 -1.25586963e-06 -1.23401988e+00  1.36693481e-05
 -1.25586963e-06 -1.23401988e+00  1.36693481e-05 -1.25586963e-06 -1.23401988e+00
  1.36693481e-05 -1.25586963e-06 -1.23401988e+00  1.36693481e-05 -1.25586963e-06
 -1.23401988e+00  1.36693481e-05 -1.25586963e-06 -1.23401988e+00  1.36693481e-05
 -1.25586963e-06 -1.23401988e+00  1.36693481e-05 -1.25586963e-06 -1.23401988e+00
  1.36693481e-05 -1.25586963e-06 -1.23401988e+00  1.36693481e-05 -1.25586963e-06
 -1.23401988e+00  1.36693481e-05 -1.25586963e-06  1.23401988e+00 -1.36694558e-05
  6.19077709e-06  1.23401988e+00 -1.36694558e-05  6.19077709e-06  1.23401988e+00
 -1.36694558e-05  6.19077709e-06  1.23401988e+00 -1.36694558e-05  6.19077709e-06
  1.23401988e+00 -1.36694558e-05  6.19077709e-06  1.23401988e+00 -1.36694558e-05
  6.19077709e-06  1.23401988e+00 -1.36694558e-05  6.19077709e-06  1.23401988e+00
 -1.36694558e-05  6.19077709e-06  1.23401988e+00 -1.36694558e-05  6.19077709e-06
  1.23401988e+00 -1.36694558e-05  6.19077709e-06  1.23401988e+00 -1.36694558e-05
  6.19077709e-06 -2.32286583e+00  1.73063001e+00  4.51805082e-06 -2.32286583e+00
  1.73063001e+00  4.51805082e-06 -2.32286583e+00  1.73063001e+00  4.51805082e-06
 -2.32286583e+00  1.73063001e+00  4.51805082e-06 -2.32290431e+00 -1.73057843e+00
 -5.87585590e-05 -2.32290431e+00 -1.73057843e+00 -5.87585590e-05 -2.32290431e+00
 -1.73057843e+00 -5.87585590e-05 -2.32290431e+00 -1.73057843e+00 -5.87585590e-05
  2.32286583e+00 -1.73063001e+00 -3.33628815e-05  2.32286583e+00 -1.73063001e+00
 -3.33628815e-05  2.32286583e+00 -1.73063001e+00 -3.33628815e-05  2.32286583e+00
 -1.73063001e+00 -3.33628815e-05  2.32290431e+00  1.73057843e+00  2.88442920e-05
  2.32290431e+00  1.73057843e+00  2.88442920e-05  2.32290431e+00  1.73057843e+00
  2.88442920e-05  2.32290431e+00  1.73057843e+00  2.88442920e-05
Total Energy                               R     -7.805893602054029e+01
Alpha Orbital Energies                     R   N=          78
 -1.12271305e+01 -1.12251499e+01 -1.04272313e+00 -7.92313962e-01 -6.44968092e-01
 -5.96933908e-01 -5.02371825e-01 -3.83150546e-01  8.39152695e-02  8.77056142e-02
  1.03914683e-01  1.08362655e-01  1.27917243e-01  1.28957138e-01  1.54373793e-01
  2.10173035e-01  2.30827396e-01  2.56595762e-01  2.87945415e-01  3.16961533e-01
  3.91221618e-01  4.48379474e-01  5.41257932e-01  5.42088471e-01  6.64466760e-01
  6.93551402e-01  7.00158201e-01  7.16204648e-01  7.52124788e-01  7.96478727e-01
  8.49818691e-01  8.80438337e-01  9.18775181e-01  9.39890739e-01  9.56143928e-01
  9.72197355e-01  1.02119260e+00  1.04078197e+00  1.27364999e+00  1.33217058e+00
  1.39849713e+00  1.46162773e+00  1.46898704e+00  1.68393711e+00  1.93220507e+00
  1.93495284e+00  1.99612991e+00  2.00171167e+00  2.29451202e+00  2.38049790e+00
  2.45215875e+00  2.46435209e+00  2.50435951e+00  2.53201173e+00  2.82189213e+00
  2.88374181e+00  2.91069938e+00  3.08794577e+00  3.11719742e+00  3.12358844e+00
  3.28022456e+00  3.30879117e+00  3.39484863e+00  3.41283874e+00  3.56545568e+00
  3.57117568e+00  3.63522506e+00  3.69928267e+00  3.76073611e+00  3.90045839e+00
  4.07759987e+00  4.13344168e+00  4.18032499e+00  4.41369097e+00  4.64654263e+00
  5.35342022e+00  2.49220839e+01  2.53399819e+01
Alpha MO coefficients                      R   N=        6084
  3.98203114e-01  3.29789137e-01 -2.25396162e-05  2.42037611e-10  5.94070038e-09
  3.56995667e-03  5.13456117e-04 -5.68562359e-09 -5.54843919e-09 -6.27441394e-04
 -2.97366306e-04  3.26771858e-09  3.02452677e-09 -3.33076999e-04  4.34855262e-09
  6.07534639e-09  2.44317646e-04 -5.40007098e-09  1.94990900e-04 -1.55100289e-09
 -2.80538122e-09 -1.82281190e-04  4.03849886e-09  1.10512429e-05  2.38705759e-04
 -2.64842793e-09  9.58735399e-10  3.98203155e-01  3.29789171e-01  2.25396712e-05
 -2.42246707e-10  7.96155151e-09  3.56995698e-03 -5.13456213e-04  5.68575897e-09
 -8.62221296e-09 -6.27441318e-04  2.97366232e-04 -3.26778217e-09  3.48216682e-09
 -3.33077028e-04  2.24114078e-09  5.98235836e-09  2.44317657e-04 -5.40008399e-09
  1.94990890e-04 -1.16947048e-09 -2.83043150e-09 -1.82281139e-04  4.03846112e-09
  1.10512928e-05 -2.38705771e-04  2.64852190e-09 -1.32915639e-09  2.79339138e-04
  6.10616231e-05  1.52513594e-04 -7.50392418e-07 -4.38807993e-05  1.04411157e-09
  2.79339150e-04  6.10615994e-05  1.52513579e-04 -7.49420029e-07  4.38808103e-05
  2.68796773e-09  2.79339170e-04  6.10616540e-05  1.52513607e-04  7.50382240e-07
  4.38808071e-05  1.90922732e-09  2.79339182e-04  6.10616306e-05  1.52513591e-04
  7.49409845e-07 -4.38808182e-05  3.71344093e-10  3.98399992e-01  3.30041882e-01
 -5.26770408e-04  5.83409815e-09  4.44237218e-09  3.03713531e-03  9.07969714e-04
 -1.00630902e-08 -3.19332656e-09  6.54059578e-04  6.75623735e-04 -7.49848604e-09
  9.16111312e-09 -2.91692530e-04  3.76845528e-09  7.43747273e-09  9.74888133e-05
 -2.15231921e-09 -1.02280970e-04  1.56605578e-10 -5.61263917e-09  4.84466380e-04
 -1.07304050e-08  7.93812101e-04  2.04306727e-04 -2.25949904e-09 -2.35170748e-10
 -3.98399951e-01 -3.30041848e-01 -5.26770406e-04  5.83433794e-09 -1.03730082e-08
 -3.03713494e-03  9.07969663e-04 -1.00632826e-08  8.53651819e-09 -6.54059645e-04
  6.75623766e-04 -7.49809716e-09 -3.79280451e-09  2.91692495e-04 -1.24558125e-09
 -7.34471854e-09 -9.74887885e-05  2.15232240e-09  1.02280990e-04 -3.46681423e-09
  5.52873707e-09 -4.84466400e-04  1.07305451e-08 -7.93812101e-04  2.04306702e-04
 -2.25958799e-09  1.64622739e-09  3.15949514e-04  2.76528995e-04  1.29555415e-04
  9.25859829e-05 -6.64254799e-05  1.37574960e-09  3.15949518e-04  2.76528955e-04
  1.29555434e-04  9.25874776e-05  6.64234058e-05  3.82897261e-09 -3.15949484e-04
 -2.76528991e-04 -1.29555397e-04  9.25859833e-05 -6.64254763e-05 -2.22293205e-09
 -3.15949488e-04 -2.76528951e-04 -1.29555417e-04  9.25874780e-05  6.64234023e-05
  1.40191515e-10  8.43857546e-02  1.38899285e-01 -5.55621958e-02  6.15275078e-07
  1.87361514e-07 -3.48503021e-01 -8.07879418e-02  8.94609743e-07  1.14510336e-07
 -1.74448307e-01 -2.12942251e-02  2.36554476e-07  2.53076622e-08  9.99522493e-03
 -1.38933787e-07 -1.45933987e-07 -9.33595100e-03  2.06623910e-07  2.71863358e-03
  3.07148318e-09  8.13707752e-08 -9.16028811e-03  2.03444720e-07 -6.86014221e-03
  7.65157062e-03 -8.44638416e-08  1.19738160e-07  8.43857545e-02  1.38899285e-01
  5.55621959e-02 -6.15282872e-07  4.17273825e-07 -3.48503021e-01  8.07879419e-02
 -8.94621028e-07  5.10319738e-07 -1.74448307e-01  2.12942251e-02 -2.36550959e-07
  1.79523154e-07  9.99522492e-03 -5.65714661e-08 -1.43238743e-07 -9.33595100e-03
  2.06622911e-07  2.71863359e-03 -7.34612958e-08  8.00152985e-08 -9.16028812e-03
  2.03446012e-07 -6.86014333e-03 -7.65157033e-03  8.44692668e-08 -2.12530320e-08
 -4.98014576e-02 -6.98725150e-02  7.35538426e-03 -8.18407144e-03  1.07123103e-02
  2.82660176e-08 -4.98014573e-02 -6.98725151e-02  7.35538552e-03 -8.18430972e-03
 -1.07121282e-02 -3.63717981e-07 -4.98014574e-02 -6.98725149e-02  7.35538431e-03
  8.18407143e-03 -1.07123103e-02 -2.39039981e-07 -4.98014571e-02 -6.98725149e-02
  7.35538553e-03  8.18430970e-03  1.07121282e-02  1.45704623e-07  6.33907423e-02
  1.05626167e-01  7.31500429e-02 -8.09276293e-07  1.04412039e-06 -2.70787957e-01
  1.07451440e-01 -1.18936722e-06  1.34626790e-06 -1.86940981e-01  5.89076756e-02
 -6.51907633e-07  5.32887721e-07  6.59462532e-03 -1.47844408e-07 -3.14097248e-07
  5.76874127e-03 -1.28648883e-07  2.10657272e-03 -1.37748988e-07 -1.28171204e-07
  3.39793178e-03 -7.52882710e-08 -2.54790985e-02  1.87483807e-04 -1.97150338e-09
  2.43300932e-07 -6.33907424e-02 -1.05626167e-01  7.31500424e-02 -8.09266240e-07
 -7.44864970e-08  2.70787958e-01  1.07451440e-01 -1.18935015e-06  3.43516765e-08
  1.86940981e-01  5.89076754e-02 -6.51928260e-07  1.24514547e-07 -6.59462532e-03
 -7.14965518e-08  3.09148865e-07 -5.76874123e-03  1.28650328e-07 -2.10657273e-03
 -1.19939532e-07  1.27299162e-07 -3.39793176e-03  7.52992596e-08  2.54790985e-02
  1.87483820e-04 -1.99472340e-09 -2.00597319e-07 -8.90204643e-02 -1.34256728e-01
 -5.67697216e-03 -8.31577243e-03  1.74713553e-02  6.32760155e-08 -8.90204706e-02
 -1.34256736e-01 -5.67697146e-03 -8.31616190e-03 -1.74711711e-02 -5.76066857e-07
  8.90204641e-02  1.34256727e-01  5.67697211e-03 -8.31577243e-03  1.74713553e-02
  4.18401055e-07  8.90204704e-02  1.34256736e-01  5.67697147e-03 -8.31616190e-03
 -1.74711711e-02 -2.09073869e-07 -5.77420915e-10 -1.03669846e-09  1.57642283e-06
  1.42181425e-01  2.58930258e-06  2.92699860e-09  2.31180308e-06  2.08546385e-01
  3.79700368e-06  4.65992245e-09  1.17074107e-06  1.05822972e-01  1.92474828e-06
 -1.00421942e-10 -8.51218329e-08 -2.42022627e-07 -1.02726626e-07 -4.58686456e-03
 -7.55091700e-10  1.14552501e-07 -1.26613737e-07  1.39350121e-07  6.30148619e-03
  4.55399949e-09  6.13208239e-08  5.44845720e-03  9.99714915e-08  5.76473853e-10
  1.03462578e-09  1.57636101e-06  1.42181425e-01  2.56538929e-06 -2.91614815e-09
  2.31171505e-06  2.08546384e-01  3.76370511e-06 -4.66811571e-09  1.17070397e-06
  1.05822972e-01  1.91179231e-06  8.94848058e-11  8.11734505e-08 -9.88249443e-08
  1.02724968e-07  4.58686451e-03  7.47635781e-10 -1.13903857e-07 -1.45406951e-07
 -1.39354488e-07 -6.30148615e-03 -4.54880945e-09  6.13186195e-08  5.44845717e-03
  9.75586608e-08  9.41437231e-02  1.55778285e-01  3.07264077e-02  1.12804550e-02
 -1.26293408e-02  8.20444443e-08 -9.41437184e-02 -1.55778279e-01 -3.07264076e-02
 -1.12807360e-02 -1.26290891e-02 -5.45045348e-07 -9.41437229e-02 -1.55778284e-01
 -3.07264076e-02  1.12804550e-02 -1.26293408e-02 -3.46128770e-07  9.41437181e-02
  1.55778279e-01  3.07264076e-02 -1.12807360e-02 -1.26290891e-02 -1.06597709e-07
  5.66523053e-03  1.02263096e-02 -1.86662291e-01  2.05676468e-06 -2.04997421e-06
 -3.88103894e-02 -2.73140707e-01  3.01048210e-06 -3.10259306e-06  3.52571035e-02
 -1.35356855e-01  1.48808943e-06 -1.63608831e-06  1.06359705e-03 -2.34513306e-08
  2.93177004e-07 -1.79005477e-02  3.98833062e-07 -5.20936480e-03  1.06933302e-07
  2.38785146e-07 -4.15203007e-03  9.31535605e-08  5.95018250e-03 -1.33949300e-03
  1.17432473e-08 -9.08555521e-08  5.66523041e-03  1.02263094e-02  1.86662291e-01
 -2.05667548e-06 -4.38816798e-07 -3.88103888e-02  2.73140707e-01 -3.01034177e-06
 -8.02877274e-07  3.52571042e-02  1.35356855e-01 -1.48801122e-06 -5.03630886e-07
  1.06359704e-03 -1.58331954e-08  2.89007895e-07 -1.79005477e-02  3.98832609e-07
 -5.20936480e-03  1.15774987e-07  2.38860069e-07 -4.15203010e-03  9.31510949e-08
  5.95018207e-03  1.33949314e-03 -1.17392479e-08  1.28298864e-08  7.65839196e-02
  1.21198006e-01  3.42899922e-02  1.19422098e-03 -1.31400982e-02 -1.19798079e-07
  7.65839454e-02  1.21198046e-01  3.42899987e-02  1.19451624e-03  1.31400749e-02
  3.60413361e-07  7.65839197e-02  1.21198006e-01  3.42899923e-02 -1.19422100e-03
  1.31400983e-02  2.74961344e-07  7.65839456e-02  1.21198046e-01  3.42899988e-02
 -1.19451626e-03 -1.31400749e-02 -1.97597266e-07  1.74814742e-09  3.01123891e-09
  1.46596424e-06  1.33889239e-01  2.47966965e-06 -9.65606519e-09  2.13342266e-06
  1.94973597e-01  3.61782550e-06 -9.76199025e-10  1.61076944e-06  1.46756751e-01
  2.71823660e-06  7.39893167e-11 -3.40401290e-07 -3.26605858e-07 -4.21708707e-07
 -1.88917254e-02 -1.07944742e-09 -4.31759280e-07 -2.81427141e-07 -5.36428189e-07
 -2.41463534e-02  1.05916211e-09  2.43555791e-07  2.20074492e-02  4.02281023e-07
  1.75122253e-09  3.01667990e-09 -1.46596362e-06 -1.33889239e-01 -2.37439443e-06
 -9.67685646e-09 -2.13342530e-06 -1.94973598e-01 -3.45081082e-06 -8.82632886e-10
 -1.61082517e-06 -1.46756751e-01 -2.60233050e-06  8.68994920e-11 -3.44508364e-07
  6.95463431e-08 -4.21699872e-07 -1.88917254e-02 -1.08164474e-09 -4.43653824e-07
 -2.03419338e-08 -5.36421168e-07 -2.41463534e-02  3.10811752e-10 -2.43373017e-07
 -2.20074492e-02 -3.95584219e-07  1.13997927e-01  1.88386175e-01  7.31205944e-02
  1.20416574e-02 -1.25310054e-02  6.90072171e-08 -1.13997910e-01 -1.88386147e-01
 -7.31205817e-02 -1.20419367e-02 -1.25307346e-02 -5.22383306e-07  1.13997927e-01
  1.88386175e-01  7.31205945e-02 -1.20416574e-02  1.25310055e-02  3.19126766e-07
 -1.13997910e-01 -1.88386147e-01 -7.31205818e-02  1.20419367e-02  1.25307346e-02
  1.36093658e-07 -3.70192494e-07 -6.29002249e-07 -2.31675565e-06 -3.02741083e-06
  1.64353252e-01  1.49040992e-06 -3.69199962e-06 -5.03097711e-06  2.73535485e-01
  3.61622510e-06 -2.91052358e-06 -4.57339783e-06  2.48167400e-01  1.32793471e-07
  1.49916811e-02 -1.66109907e-07 -1.50816688e-07 -2.66053699e-07 -8.13391906e-08
  2.81196239e-02 -3.11390708e-07 -5.89145984e-09 -4.90832055e-07 -1.68214457e-06
 -9.86230388e-07 -5.83482384e-07  3.13327340e-02 -5.66728611e-08 -8.88096725e-08
  1.01827358e-06 -2.93109129e-06  1.64353252e-01  1.88086066e-08  1.44327375e-06
 -4.88584287e-06  2.73535485e-01  1.05970906e-06  8.53705017e-07 -4.42372143e-06
  2.48167400e-01 -3.08671278e-08 -1.49916811e-02  1.66110258e-07 -5.33708420e-08
  2.77457447e-07 -1.71430786e-07 -2.81196239e-02  3.11394228e-07  2.78315689e-07
  5.28619667e-07  2.25852540e-06 -2.79385569e-07 -5.52450776e-07  3.13327340e-02
 -9.55259893e-08 -2.34877592e-07  3.24267602e-07 -1.87116036e-07 -1.68681327e-07
  1.36638500e-02 -3.83197359e-08 -1.47829440e-07  3.94191184e-07 -1.81868190e-07
 -3.27378455e-07  1.36638505e-02  4.85012575e-08  2.43568393e-07  2.26181268e-07
  1.92569537e-08 -2.57924947e-07  1.36638500e-02  1.05707523e-07  3.30616619e-07
  2.96104860e-07  1.40075669e-08 -2.36758950e-07  1.36638505e-02  1.33357531e-02
  2.36221107e-02  3.20465214e-02 -3.55481124e-07  5.38709799e-07 -7.30787984e-02
  4.38434200e-02 -4.81442185e-07  1.22739059e-06 -2.22175201e-01  1.51264199e-01
 -1.73615999e-06  1.16717442e-06  5.63205445e-03 -6.29086059e-08 -1.87730702e-07
  5.66288858e-04 -1.23197219e-08  2.72663928e-03 -4.77201509e-07 -5.48546948e-07
  2.49614017e-02 -5.71681675e-07  1.25704533e+00 -7.94060284e-01  8.61381551e-06
 -1.04789619e-05  1.33357529e-02  2.36221103e-02 -3.20465213e-02  3.55474121e-07
 -1.00957274e-07 -7.30787970e-02 -4.38434186e-02  4.81458075e-07 -1.12615738e-08
 -2.22175214e-01 -1.51264190e-01  1.73607765e-06  9.40523383e-08  5.63205444e-03
 -3.39656025e-08 -1.86459778e-07  5.66288828e-04 -1.23175675e-08  2.72663952e-03
  3.37708778e-08 -5.27624537e-07  2.49614004e-02 -5.71674941e-07  1.25704557e+00
  7.94060205e-01 -8.61391432e-06 -2.65833173e-06 -2.27874821e-02  8.52179832e-02
 -4.65209109e-01  4.39715026e-05  2.66961907e-03 -2.96596280e-08 -2.27874831e-02
  8.52180040e-02 -4.65209303e-01  4.39098813e-05 -2.66961609e-03 -1.30434846e-07
 -2.27874819e-02  8.52179821e-02 -4.65209105e-01 -4.39714885e-05 -2.66961907e-03
 -1.40485153e-07 -2.27874829e-02  8.52180028e-02 -4.65209299e-01 -4.39098648e-05
  2.66961611e-03 -4.76900211e-08  1.49078577e-02  2.58940418e-02  7.52675487e-03
 -8.22284319e-08  2.49754032e-07 -8.01176477e-02  8.25596071e-02 -9.09786747e-07
  8.73775457e-07  7.79344156e-01  5.79089189e-01 -6.41287379e-06  2.88031828e-06
  3.74860259e-04 -3.60562280e-08 -3.32937832e-08  1.14401573e-03 -2.53696530e-08
 -1.64782116e-02  4.83812263e-08 -1.17496510e-06  9.30605700e-02 -2.06494529e-06
 -1.36323099e+01 -4.45602950e+00  4.93349439e-05 -2.20608979e-05 -1.49078580e-02
 -2.58940422e-02  7.52675549e-03 -8.22105305e-08 -1.29893486e-07  8.01176489e-02
  8.25596078e-02 -9.09964103e-07 -1.40261878e-07 -7.79344150e-01  5.79089193e-01
 -6.41184298e-06  1.03277993e-06 -3.74860350e-04 -3.13716967e-08  3.17207894e-08
 -1.14401573e-03  2.53720201e-08  1.64782116e-02 -5.61659384e-07  1.16415169e-06
 -9.30605706e-02  2.06452977e-06  1.36323099e+01 -4.45602951e+00  4.93389284e-05
 -6.79026906e-06 -1.07647117e-02  6.82991129e-02 -1.88013533e-01  1.23793184e-03
  2.94723267e-04  1.01051466e-07 -1.07647135e-02  6.82991290e-02 -1.88013590e-01
  1.23792600e-03 -2.94751266e-04  9.25861924e-08  1.07647121e-02 -6.82991149e-02
  1.88013542e-01  1.23793185e-03  2.94723228e-04 -5.00087559e-08  1.07647139e-02
 -6.82991301e-02  1.88013594e-01  1.23792602e-03 -2.94751364e-04 -6.29144912e-08
 -5.12459118e-10 -8.07218650e-10  4.47326478e-07  4.03441477e-02  7.56791205e-07
 -9.00851759e-11  1.14990170e-06  1.04250828e-01  1.94300440e-06 -5.54682646e-08
  2.04079028e-06  1.86975331e-01  3.41441929e-06 -4.21987594e-11  2.76234949e-08
 -1.16323331e-07  3.59735262e-08  1.63680260e-03  7.07062752e-10 -9.34832991e-07
 -1.12925372e-06 -1.12058459e-06 -4.99601370e-02 -5.19309731e-07 -9.89819808e-06
 -8.84054369e-01 -1.58036531e-05  5.06789059e-10  7.98132928e-10  4.47344666e-07
  4.03441477e-02  7.05858699e-07  1.06109022e-10  1.14990016e-06  1.04250828e-01
  1.83653915e-06  5.58074679e-08  2.04097357e-06  1.86975331e-01  3.36424526e-06
  3.42631334e-11 -3.17175655e-08 -1.06022936e-07 -3.59755242e-08 -1.63680261e-03
 -7.42057983e-10  8.76450301e-07 -4.16314386e-08  1.12052469e-06  4.99601366e-02
  5.19115539e-07 -9.89836388e-06 -8.84054367e-01 -1.62471433e-05  1.75717984e-02
 -1.50630232e-01  5.34677700e-01 -2.93545544e-03  6.53314687e-03 -2.42013128e-08
 -1.75717967e-02  1.50630214e-01 -5.34677613e-01  2.93559968e-03  6.53308136e-03
  2.72048237e-07 -1.75717984e-02  1.50630232e-01 -5.34677699e-01 -2.93545540e-03
  6.53314679e-03  2.57830101e-07  1.75717967e-02 -1.50630213e-01  5.34677612e-01
  2.93559964e-03  6.53308129e-03 -3.19697336e-08 -4.20032923e-07 -7.33354145e-07
 -9.35746136e-07 -1.46634984e-06  7.95497976e-02  1.68320971e-06 -2.10100506e-06
 -2.70624596e-06  1.46280447e-01  9.16015579e-06 -8.26991661e-08 -1.72373697e-06
  9.03687126e-02  2.29441191e-08 -6.03392806e-03  6.68228422e-08  2.73124108e-08
  1.06793391e-07 -1.04415502e-06 -5.05037630e-02  5.59282485e-07 -2.57789776e-07
  9.26965944e-07 -1.53816376e-04 -4.30956147e-05 -2.99755478e-05  1.66567035e+00
  2.70196554e-07  4.72952857e-07  1.66414891e-07  1.41766232e-06 -7.95497977e-02
 -1.03577950e-06 -1.24695408e-07  2.59703135e-06 -1.46280447e-01 -6.87182095e-06
  1.77328146e-06  1.55249887e-06 -9.03687126e-02 -8.31356334e-08 -6.03392806e-03
  6.68265752e-08  7.44308944e-09  1.11961836e-07  4.61272818e-07 -5.05037630e-02
  5.59221121e-07  5.39878734e-07  9.04007876e-07  1.49848318e-04 -3.38074766e-05
  3.04121044e-05 -1.66567035e+00 -5.41510352e-07 -3.42729335e-06  5.24652242e-06
 -3.36208843e-07 -1.84399898e-07  1.45954282e-02 -5.48329401e-07 -3.56103257e-06
  5.52513880e-06 -3.37607755e-07 -3.52672877e-07  1.45954285e-02  3.42665934e-07
  2.26299877e-06 -3.11527269e-06 -1.69892937e-07  3.50992017e-07 -1.45954283e-02
  3.49484991e-07  2.39673782e-06 -3.39388729e-06 -1.71292010e-07  1.70226407e-07
 -1.45954285e-02 -1.63745577e-10 -2.88003012e-10  2.95604602e-07  2.68341648e-02
  7.51614899e-07  3.38392649e-09  9.88949034e-07  8.87825402e-02  1.79789150e-06
  3.59008157e-08 -2.68746198e-06 -2.39831474e-01 -2.97322187e-06 -7.68674593e-10
 -1.12254301e-08 -1.96392378e-07 -5.06249363e-08 -2.26157705e-03  2.66415695e-09
 -1.44089169e-06 -3.84845067e-07 -1.79234210e-06 -8.05720400e-02 -8.34858578e-08
 -3.80724959e-05 -3.43228258e+00 -6.51419124e-05 -1.36710039e-10 -2.40556174e-10
 -2.95653629e-07 -2.68341649e-02 -2.21239694e-07  3.45460941e-09 -9.88742777e-07
 -8.87825401e-02 -1.42085981e-06  2.97640469e-08  2.69004919e-06  2.39831474e-01
  5.72170711e-06 -7.66039232e-10 -7.07681353e-08  5.05785221e-08 -5.06065424e-08
 -2.26157702e-03  3.03347622e-09 -1.48019865e-06 -8.08376289e-08 -1.79258963e-06
 -8.05720399e-02 -3.64931293e-08  3.80614892e-05  3.43228258e+00  5.92931817e-05
  1.95086857e-02 -9.89875191e-02  1.06443957e+00  7.67059150e-03  7.05406735e-03
 -3.71258439e-08 -1.95086806e-02  9.89875149e-02 -1.06443952e+00 -7.67043362e-03
  7.05423777e-03  2.66750229e-07  1.95086857e-02 -9.89875186e-02  1.06443957e+00
 -7.67059155e-03 -7.05406729e-03 -2.07187775e-07 -1.95086806e-02  9.89875154e-02
 -1.06443952e+00  7.67043363e-03 -7.05423778e-03 -7.46749898e-08 -7.12004114e-08
 -1.17255612e-07 -6.69552174e-07 -1.25479427e-06  6.26635562e-02  6.06339916e-07
 -2.70767794e-08 -1.13258825e-06  4.19208714e-02 -1.60658232e-06 -6.64158889e-06
 -5.07538824e-06  3.33279316e-01  5.81603667e-08  7.34499840e-03 -8.13989080e-08
 -3.51689190e-08 -1.22770520e-07  4.29995129e-07  5.08460078e-03 -5.62430197e-08
 -3.15197346e-07  2.19993138e-07  8.83871589e-05  3.93843154e-05  2.66920245e-05
 -6.60476505e-01 -4.09066009e-08 -7.14151594e-08  2.54245565e-07 -1.01702616e-06
  6.26635562e-02  2.11387094e-07 -4.06572158e-09 -3.87224327e-07  4.19208714e-02
  5.86775411e-06 -1.56968776e-07 -7.00735355e-06  3.33279316e-01 -4.29866710e-09
 -7.34499841e-03  8.13986556e-08 -2.01093154e-08  1.43517119e-07 -2.94183817e-07
 -5.08460079e-03  5.62505340e-08 -2.66931038e-07  4.04330921e-07 -9.46977722e-05
  1.14044945e-05 -2.74745615e-06 -6.60476505e-01 -1.65821637e-07  1.72837252e-06
 -9.74071236e-06  4.50624025e-08 -4.03667608e-09 -3.41738721e-03  1.83619305e-09
  9.47920477e-07 -7.74180747e-07  1.09093219e-07  7.75375203e-08 -3.41738716e-03
 -2.93814845e-08 -3.74656494e-08 -3.72189985e-06  9.16395196e-08  6.25441337e-08
 -3.41738722e-03  1.38276362e-07 -8.17917863e-07  5.24463199e-06  2.76101760e-08
  1.11742151e-07 -3.41738717e-03  1.27106512e-02  1.97535802e-02 -1.78490583e-02
  1.95848547e-07 -4.08773347e-07  1.79822390e-03  2.00104264e-02 -2.27083127e-07
  3.45347857e-07 -4.44136591e-01 -1.23609848e-01  1.38278944e-06 -3.56856957e-06
  7.55604429e-03 -1.29886415e-07 -1.16667428e-07 -6.68981145e-03  1.48257851e-07
  8.45401519e-03 -3.73110560e-07  1.16423146e-07 -2.10721325e-02  4.64568689e-07
  3.66803982e-01  1.46942439e+00 -1.62766466e-05  8.21617976e-06  1.27106513e-02
  1.97535802e-02  1.78490583e-02 -1.95840509e-07 -3.28805784e-07  1.79822381e-03
 -2.00104263e-02  2.27052158e-07 -2.39154183e-08 -4.44136589e-01  1.23609846e-01
 -1.38275931e-06 -1.80918191e-06  7.55604429e-03  5.79357860e-09 -1.15273369e-07
 -6.68981146e-03  1.48257275e-07  8.45401496e-03 -1.46711020e-07  1.16674288e-07
 -2.10721325e-02  4.64547536e-07  3.66803899e-01 -1.46942437e+00  1.62765042e-05
 -1.58609983e-06 -2.37966514e-03  2.84990793e-02 -1.71323715e-01  7.41489350e-03
 -8.73824762e-05  1.95248630e-08 -2.37966573e-03  2.84990849e-02 -1.71323678e-01
  7.41489608e-03  8.72190823e-05  2.20328707e-08 -2.37966506e-03  2.84990787e-02
 -1.71323712e-01 -7.41489346e-03  8.73824184e-05 -1.27171827e-08 -2.37966564e-03
  2.84990844e-02 -1.71323675e-01 -7.41489604e-03 -8.72190352e-05 -1.65392443e-08
  1.15361316e-02  1.93091278e-02  1.94155321e-02 -2.16771864e-07  2.40913518e-06
  1.26793842e-02  2.73756277e-02 -3.02222612e-07  4.53946746e-06 -1.10593726e+00
 -1.99668583e-01  2.21835457e-06  8.64846553e-06  2.60090689e-03 -2.93945989e-07
 -1.05929427e-07  1.20338378e-03 -2.73053494e-08  7.08142450e-02 -1.66722679e-06
 -2.35384729e-06  6.58946545e-03 -1.53781684e-07  4.95561296e+01  1.24648551e+01
 -1.38072415e-04  3.39508530e-06 -1.15361316e-02 -1.93091276e-02  1.94155319e-02
 -2.16846365e-07 -2.58256755e-06 -1.26793846e-02  2.73756275e-02 -3.01845987e-07
 -3.88269088e-06  1.10593725e+00 -1.99668586e-01  2.21620167e-06 -1.23036718e-05
 -2.60090692e-03 -2.03276221e-07  1.01019666e-07 -1.20338381e-03  2.72998300e-08
 -7.08142449e-02 -6.62491471e-07  2.33177182e-06 -6.58946506e-03  1.54803448e-07
 -4.95561296e+01  1.24648551e+01 -1.38075057e-04  7.08283221e-05 -1.49559640e-02
  2.12272004e-01 -9.51456162e-01  1.33670609e-02 -7.04310294e-03  4.63910008e-07
 -1.49559680e-02  2.12272013e-01 -9.51456199e-01  1.33672205e-02  7.04280779e-03
  7.27764643e-07  1.49559641e-02 -2.12272002e-01  9.51456166e-01  1.33670609e-02
 -7.04310266e-03 -4.90065493e-07  1.49559681e-02 -2.12272014e-01  9.51456210e-01
  1.33672204e-02  7.04280794e-03 -2.43244891e-07 -1.10029307e-06 -1.85547482e-06
 -2.46735615e-06 -2.86051720e-06  1.55636267e-01  3.10419924e-06 -3.02981354e-06
 -3.45768219e-06  1.88133194e-01  2.94048420e-05 -2.70046925e-05 -1.77114143e-05
  9.62742523e-01 -9.39984019e-09 -1.47805270e-02  1.63641480e-07  2.32010650e-07
  2.59864575e-07 -4.61180976e-07  1.58685005e-02 -1.75150504e-07 -1.30847317e-06
 -2.91290811e-07 -5.75247843e-04 -1.47660417e-04  3.06905111e-05 -1.69993629e+00
  6.31913310e-07  1.08697754e-06  7.42176776e-08  2.78194264e-06 -1.55636267e-01
 -2.07225779e-06 -3.43286908e-07  3.36293030e-06 -1.88133194e-01 -2.73592232e-06
 -8.24287558e-06  1.71919591e-05 -9.62742523e-01 -3.77822310e-08 -1.47805270e-02