Generated by Psi4
        SP                           RHF                        STO-3G
Number of atoms                            I                6
Charge                                     I                0
Multiplicity                               I                1
Number of electrons                        I               16
Number of alpha electrons                  I                8
Number of beta electrons                   I                8
Number of basis functions                  I               14
Number of independent functions            I               14
Atomic numbers                             I   N=           6
           6           6           1           1           1           1
Nuclear charges                            R   N=           6
  6.00000000e+00  6.00000000e+00  1.00000000e+00  1.00000000e+00  1.00000000e+00
  1.00000000e+00
Current cartesian coordinates              R   N=          18
 -1.23401988e+00  1.36693481e-05 -1.25586963e-06  1.23401988e+00 -1.36694558e-05
  6.19077709e-06 -2.32286583e+00  1.73063001e+00  4.51805082e-06 -2.32290431e+00
 -1.73057843e+00 -5.87585590e-05  2.32286583e+00 -1.73063001e+00 -3.33628815e-05
  2.32290431e+00  1.73057843e+00  2.88442920e-05
Integer atomic weights                     I   N=           6
          12          12           1           1           1           1
Real atomic weights                        R   N=           6
  1.20000000e+01  1.20000000e+01  1.00782503e+00  1.00782503e+00  1.00782503e+00
  1.00782503e+00
Number of primitive shells                 I               30
Number of contracted shells                I               10
Pure/Cartesian d shells                    I                0
Pure/Cartesian f shells                    I                0
Highest angular momentum                   I                1
Largest degree of contraction              I                3
Shell types                                I   N=          10
           0           0           1           0           0           1
           0           0           0           0
Number of primitives per shell             I   N=          10
           3           3           3           3           3           3
           3           3           3           3
Shell to atom map                          I   N=          10
           1           1           1           2           2           2
           3           4           5           6
Primitive exponents                        R   N=          30
  7.16168370e+01  1.30450960e+01  3.53051220e+00  2.94124940e+00  6.83483100e-01
  2.22289900e-01  2.94124940e+00  6.83483100e-01  2.22289900e-01  7.16168370e+01
  1.30450960e+01  3.53051220e+00  2.94124940e+00  6.83483100e-01  2.22289900e-01
  2.94124940e+00  6.83483100e-01  2.22289900e-01  3.42525091e+00  6.23913730e-01
  1.68855400e-01  3.42525091e+00  6.23913730e-01  1.68855400e-01  3.42525091e+00
  6.23913730e-01  1.68855400e-01  3.42525091e+00  6.23913730e-01  1.68855400e-01
Contraction coefficients                   R   N=          30
  1.54328970e-01  5.35328140e-01  4.44634540e-01 -9.99672301e-02  3.99512830e-01
  7.00115471e-01  1.55916272e-01  6.07683728e-01  3.91957395e-01  1.54328970e-01
  5.35328140e-01  4.44634540e-01 -9.99672301e-02  3.99512830e-01  7.00115471e-01
  1.55916272e-01  6.07683728e-01  3.91957395e-01  1.54328971e-01  5.35328142e-01
  4.44634542e-01  1.54328971e-01  5.35328142e-01  4.44634542e-01  1.54328971e-01
  5.35328142e-01  4.44634542e-01  1.54328971e-01  5.35328142e-01  4.44634542e-01
Coordinates of each shell                  R   N=          30
 -1.23401988e+00  1.36693481e-05 -1.25586963e-06 -1.23401988e+00  1.36693481e-05
 -1.25586963e-06 -1.23401988e+00  1.36693481e-05 -1.25586963e-06  1.23401988e+00
 -1.36694558e-05  6.19077709e-06  1.23401988e+00 -1.36694558e-05  6.19077709e-06
  1.23401988e+00 -1.36694558e-05  6.19077709e-06 -2.32286583e+00  1.73063001e+00
  4.51805082e-06 -2.32290431e+00 -1.73057843e+00 -5.87585590e-05  2.32286583e+00
 -1.73063001e+00 -3.33628815e-05  2.32290431e+00  1.73057843e+00  2.88442920e-05
Total Energy                               R     -7.707421109504483e+01
Alpha Orbital Energies                     R   N=          14
 -1.10218733e+01 -1.10208257e+01 -9.87663403e-01 -7.45732268e-01 -6.05617579e-01
 -5.40231347e-01 -4.58064029e-01 -3.35490388e-01  3.28327600e-01  6.18830229e-01
  6.99902727e-01  7.03617669e-01  9.47752821e-01  1.02789834e+00
Alpha MO coefficients                      R   N=         196
  7.01784416e-01  2.00110791e-02 -2.04013773e-03  2.26859172e-08 -6.44444073e-08
  7.01784543e-01  2.00110848e-02  2.04013691e-03 -2.26845488e-08 -1.78070656e-08
 -4.74861871e-03 -4.74861865e-03 -4.74861959e-03 -4.74861953e-03  7.01446645e-01
  3.15926173e-02  4.51134560e-03 -4.98653208e-08 -5.15495440e-08 -7.01446519e-01
 -3.15926137e-02  4.51134598e-03 -4.98668459e-08  4.88708401e-08 -4.92094255e-03
 -4.92094258e-03  4.92094168e-03  4.92094172e-03  1.79525122e-01 -4.68050778e-01
 -1.19490130e-01  1.32224557e-06  6.10456011e-07  1.79525122e-01 -4.68050778e-01
  1.19490130e-01 -1.32226936e-06  1.00469574e-06 -1.11962749e-01 -1.11962750e-01
 -1.11962749e-01 -1.11962750e-01  1.35635215e-01 -4.10059157e-01  2.03321834e-01
 -2.24999745e-06  2.90717482e-06 -1.35635215e-01  4.10059158e-01  2.03321833e-01
 -2.24996441e-06 -1.53154405e-07 -2.23583716e-01 -2.23583730e-01  2.23583716e-01
  2.23583730e-01 -1.45678376e-09  6.76741689e-09  4.40042597e-06  3.96866276e-01
  7.22567956e-06  1.45395345e-09 -6.76174858e-09  4.40031147e-06  3.96866275e-01
  7.16244013e-06  2.56607678e-01 -2.56607663e-01 -2.56607678e-01  2.56607662e-01
  1.48923632e-02 -1.68640950e-02 -4.99960082e-01  5.50143970e-06 -6.30289413e-06
  1.48923630e-02 -1.68640941e-02  4.99960083e-01 -5.50119438e-06 -1.82577666e-06
  2.16989529e-01  2.16989610e-01  2.16989529e-01  2.16989611e-01  4.01823615e-09
 -1.05694485e-08  4.30022740e-06  3.93355345e-01  7.30971046e-06  4.02626339e-09
 -1.06096988e-08 -4.30023234e-06 -3.93355345e-01 -6.95112229e-06  3.50619243e-01
 -3.50619184e-01  3.50619244e-01 -3.50619184e-01 -1.06034679e-06  4.96750460e-06
 -8.13449193e-06 -1.16184669e-05  6.31961714e-01 -2.43367848e-07  1.58399933e-06
  2.98061387e-06 -1.12928225e-05  6.31961714e-01  3.07934884e-07  5.16912728e-07
  5.32272350e-07  7.41250203e-07 -2.55894178e-06  1.39141040e-05 -9.34069164e-06
 -1.49901761e-05  8.17562437e-01  1.66771279e-06 -8.48334273e-06  2.05518508e-07
  1.46498940e-05 -8.17562437e-01 -6.97766168e-06 -7.18202561e-06  4.05400239e-06
  4.25836621e-06  1.60500213e-08 -1.05645170e-07  7.70357567e-06  6.98230953e-01
  1.29051756e-05 -1.61147966e-08  1.06037805e-07  7.70380705e-06  6.98230955e-01
  1.24087176e-05 -6.26289134e-01  6.26289178e-01  6.26289135e-01 -6.26289180e-01
  1.23306901e-01 -8.27163384e-01  5.21080298e-01 -5.81602711e-06  1.20792606e-05
  1.23306967e-01 -8.27163801e-01 -5.21080390e-01  5.81616809e-06  4.88721829e-07
  6.31318133e-01  6.31318110e-01  6.31318389e-01  6.31318365e-01  1.67545294e-01
 -1.05618648e+00  2.29880128e-01 -2.59507283e-06  1.66501786e-05 -1.67545245e-01
  1.05618615e+00  2.29879921e-01 -2.59443297e-06 -1.12069719e-05  6.46265094e-01
  6.46265044e-01 -6.46264843e-01 -6.46264794e-01  4.13038166e-09 -3.77730763e-08
  1.06593895e-05  9.58363193e-01  1.74592201e-05  4.04738032e-09 -3.71289371e-08
 -1.06598852e-05 -9.58363191e-01 -1.72855930e-05 -6.12347969e-01  6.12348016e-01
 -6.12347967e-01  6.12348014e-01  1.15830002e-01 -9.29915600e-01 -1.17935069e+00
  1.30249347e-05 -5.88037312e-06 -1.15830003e-01  9.29915601e-01 -1.17935069e+00
  1.30253322e-05 -1.84101737e-06 -1.17525444e-01 -1.17525539e-01  1.17525443e-01
  1.17525537e-01
Total SCF Density                          R   N=         105
  2.07075345e+00 -2.07384964e-01  7.77805955e-01  8.26529456e-04 -3.78269150e-02
  6.11204516e-01 -7.83125061e-09  4.16652558e-07  1.43504431e-07  6.24462537e-01
 -6.82882812e-07  3.52961809e-06 -2.94276240e-06 -3.19904889e-06  7.98751216e-01
  2.90565779e-02 -7.35532452e-02 -1.22141745e-01  1.35509342e-06 -1.08290809e-06
  2.07075345e+00 -7.35532452e-02  1.01219531e-01  2.95098903e-01 -3.27826575e-06
  4.02809527e-06 -2.07384964e-01  7.77805955e-01  1.22141745e-01 -2.95098904e-01
 -4.45764035e-01  5.01124896e-06 -1.20777942e-06 -8.26529458e-04  3.78269152e-02
  6.11204516e-01 -1.35505224e-06  3.27807644e-06  5.01137050e-06  5.54882680e-03
 -1.42885786e-05  7.84667198e-09 -4.16726367e-07  1.43414146e-07  6.24462537e-01
 -1.03182036e-06  5.52760856e-06 -8.75760889e-06 -1.44683296e-05  7.98751216e-01
 -5.32501162e-08  9.93731480e-07  2.11995108e-06 -3.11966074e-06  7.98751216e-01
 -1.07957498e-01  2.80353955e-01 -2.81153972e-01  4.79516872e-01  5.05249089e-06
  2.71529173e-02 -8.57543905e-02  9.92318838e-02 -7.21591248e-02 -1.75846613e-06
  5.96875820e-01 -1.07957504e-01  2.80353973e-01 -2.81164606e-01 -4.79510617e-01
 -1.23517372e-05  2.71529162e-02 -8.57543822e-02  9.92334733e-02  7.21569208e-02
  9.02705387e-07 -1.58249505e-01  5.96875805e-01  2.71529173e-02 -8.57543906e-02
 -9.92318840e-02  7.21591248e-02  5.18349968e-07 -1.07957498e-01  2.80353955e-01
  2.81153972e-01 -4.79516872e-01 -8.96267863e-06  1.33430245e-01 -9.49151066e-02
  5.96875820e-01  2.71529162e-02 -8.57543823e-02 -9.92334734e-02 -7.21569207e-02
 -2.05255953e-06 -1.07957504e-01  2.80353973e-01  2.81164607e-01  4.79510617e-01
  8.40198949e-06 -9.49151066e-02  1.33430235e-01 -1.58249505e-01  5.96875806e-01
