Generated by Psi4
        SP                           RHF                 6-311+G(2D,P)
Number of atoms                            I               10
Charge                                     I                0
Multiplicity                               I                1
Number of electrons                        I               64
Number of alpha electrons                  I               32
Number of beta electrons                   I               32
Number of basis functions                  I              270
Number of independent functions            I              270
Atomic numbers                             I   N=          10
           6           6           6           7           6           7
           6           7           6           7
Nuclear charges                            R   N=          10
  6.00000000e+00  6.00000000e+00  6.00000000e+00  7.00000000e+00  6.00000000e+00
  7.00000000e+00  6.00000000e+00  7.00000000e+00  6.00000000e+00  7.00000000e+00
Current cartesian coordinates              R   N=          30
 -1.29626291e+00  2.15634747e-05 -7.62089615e-05  1.29699977e+00 -1.87369940e-05
 -2.92669487e-05  2.70971149e+00  2.30315819e+00  5.89101092e-05  3.89364937e+00
  4.15422438e+00  1.30090169e-04 -2.70910500e+00  2.30311579e+00  1.01359754e-05
 -3.89431376e+00  4.15336944e+00  7.81368088e-05 -2.70916964e+00 -2.30303130e+00
 -7.26672216e-05 -3.89442126e+00 -4.15325766e+00 -7.04286438e-05  2.70964186e+00
 -2.30324132e+00 -2.54248572e-05  3.89352979e+00 -4.15433975e+00 -2.25191569e-05
Integer atomic weights                     I   N=          10
          12          12          12          14          12          14
          12          14          12          14
Real atomic weights                        R   N=          10
  1.20000000e+01  1.20000000e+01  1.20000000e+01  1.40030740e+01  1.20000000e+01
  1.40030740e+01  1.20000000e+01  1.40030740e+01  1.20000000e+01  1.40030740e+01
Number of primitive shells                 I              200
Number of contracted shells                I              110
Pure/Cartesian d shells                    I                0
Pure/Cartesian f shells                    I                0
Highest angular momentum                   I                2
Largest degree of contraction              I                6
Shell types                                I   N=         110
           0           0           1           0           1           0
           1          -2          -2           0           1           0
           0           1           0           1           0           1
          -2          -2           0           1           0           0
           1           0           1           0           1          -2
          -2           0           1           0           0           1
           0           1           0           1          -2          -2
           0           1           0           0           1           0
           1           0           1          -2          -2           0
           1           0           0           1           0           1
           0           1          -2          -2           0           1
           0           0           1           0           1           0
           1          -2          -2           0           1           0
           0           1           0           1           0           1
          -2          -2           0           1           0           0
           1           0           1           0           1          -2
          -2           0           1           0           0           1
           0           1           0           1          -2          -2
           0           1
Number of primitives per shell             I   N=         110
           6           3           3           1           1           1
           1           1           1           1           1           6
           3           3           1           1           1           1
           1           1           1           1           6           3
           3           1           1           1           1           1
           1           1           1           6           3           3
           1           1           1           1           1           1
           1           1           6           3           3           1
           1           1           1           1           1           1
           1           6           3           3           1           1
           1           1           1           1           1           1
           6           3           3           1           1           1
           1           1           1           1           1           6
           3           3           1           1           1           1
           1           1           1           1           6           3
           3           1           1           1           1           1
           1           1           1           6           3           3
           1           1           1           1           1           1
           1           1
Shell to atom map                          I   N=         110
           1           1           1           1           1           1
           1           1           1           1           1           2
           2           2           2           2           2           2
           2           2           2           2           3           3
           3           3           3           3           3           3
           3           3           3           4           4           4
           4           4           4           4           4           4
           4           4           5           5           5           5
           5           5           5           5           5           5
           5           6           6           6           6           6
           6           6           6           6           6           6
           7           7           7           7           7           7
           7           7           7           7           7           8
           8           8           8           8           8           8
           8           8           8           8           9           9
           9           9           9           9           9           9
           9           9           9          10          10          10
          10          10          10          10          10          10
          10          10
Primitive exponents                        R   N=         200
  4.56324000e+03  6.82024000e+02  1.54973000e+02  4.44553000e+01  1.30290000e+01
  1.82773000e+00  2.09642000e+01  4.80331000e+00  1.45933000e+00  2.09642000e+01
  4.80331000e+00  1.45933000e+00  4.83456000e-01  4.83456000e-01  1.45585000e-01
  1.45585000e-01  1.25200000e+00  3.13000000e-01  4.38000000e-02  4.38000000e-02
  4.56324000e+03  6.82024000e+02  1.54973000e+02  4.44553000e+01  1.30290000e+01
  1.82773000e+00  2.09642000e+01  4.80331000e+00  1.45933000e+00  2.09642000e+01
  4.80331000e+00  1.45933000e+00  4.83456000e-01  4.83456000e-01  1.45585000e-01
  1.45585000e-01  1.25200000e+00  3.13000000e-01  4.38000000e-02  4.38000000e-02
  4.56324000e+03  6.82024000e+02  1.54973000e+02  4.44553000e+01  1.30290000e+01
  1.82773000e+00  2.09642000e+01  4.80331000e+00  1.45933000e+00  2.09642000e+01
  4.80331000e+00  1.45933000e+00  4.83456000e-01  4.83456000e-01  1.45585000e-01
  1.45585000e-01  1.25200000e+00  3.13000000e-01  4.38000000e-02  4.38000000e-02
  6.29348000e+03  9.49044000e+02  2.18776000e+02  6.36916000e+01  1.88282000e+01
  2.72023000e+00  3.06331000e+01  7.02614000e+00  2.11205000e+00  3.06331000e+01
  7.02614000e+00  2.11205000e+00  6.84009000e-01  6.84009000e-01  2.00878000e-01
  2.00878000e-01  1.82600000e+00  4.56500000e-01  6.39000000e-02  6.39000000e-02
  4.56324000e+03  6.82024000e+02  1.54973000e+02  4.44553000e+01  1.30290000e+01
  1.82773000e+00  2.09642000e+01  4.80331000e+00  1.45933000e+00  2.09642000e+01
  4.80331000e+00  1.45933000e+00  4.83456000e-01  4.83456000e-01  1.45585000e-01
  1.45585000e-01  1.25200000e+00  3.13000000e-01  4.38000000e-02  4.38000000e-02
  6.29348000e+03  9.49044000e+02  2.18776000e+02  6.36916000e+01  1.88282000e+01
  2.72023000e+00  3.06331000e+01  7.02614000e+00  2.11205000e+00  3.06331000e+01
  7.02614000e+00  2.11205000e+00  6.84009000e-01  6.84009000e-01  2.00878000e-01
  2.00878000e-01  1.82600000e+00  4.56500000e-01  6.39000000e-02  6.39000000e-02
  4.56324000e+03  6.82024000e+02  1.54973000e+02  4.44553000e+01  1.30290000e+01
  1.82773000e+00  2.09642000e+01  4.80331000e+00  1.45933000e+00  2.09642000e+01
  4.80331000e+00  1.45933000e+00  4.83456000e-01  4.83456000e-01  1.45585000e-01
  1.45585000e-01  1.25200000e+00  3.13000000e-01  4.38000000e-02  4.38000000e-02
  6.29348000e+03  9.49044000e+02  2.18776000e+02  6.36916000e+01  1.88282000e+01
  2.72023000e+00  3.06331000e+01  7.02614000e+00  2.11205000e+00  3.06331000e+01
  7.02614000e+00  2.11205000e+00  6.84009000e-01  6.84009000e-01  2.00878000e-01
  2.00878000e-01  1.82600000e+00  4.56500000e-01  6.39000000e-02  6.39000000e-02
  4.56324000e+03  6.82024000e+02  1.54973000e+02  4.44553000e+01  1.30290000e+01
  1.82773000e+00  2.09642000e+01  4.80331000e+00  1.45933000e+00  2.09642000e+01
  4.80331000e+00  1.45933000e+00  4.83456000e-01  4.83456000e-01  1.45585000e-01
  1.45585000e-01  1.25200000e+00  3.13000000e-01  4.38000000e-02  4.38000000e-02
  6.29348000e+03  9.49044000e+02  2.18776000e+02  6.36916000e+01  1.88282000e+01
  2.72023000e+00  3.06331000e+01  7.02614000e+00  2.11205000e+00  3.06331000e+01
  7.02614000e+00  2.11205000e+00  6.84009000e-01  6.84009000e-01  2.00878000e-01
  2.00878000e-01  1.82600000e+00  4.56500000e-01  6.39000000e-02  6.39000000e-02
Contraction coefficients                   R   N=         200
  1.96665025e-03  1.52306019e-02  7.61269097e-02  2.60801033e-01  6.16462078e-01
  2.21006028e-01  1.14660081e-01  9.19999648e-01 -3.03068213e-03  4.02486927e-02
  2.37593957e-01  8.15853851e-01  1.00000000e+00  1.00000000e+00  1.00000000e+00
  1.00000000e+00  1.00000000e+00  1.00000000e+00  1.00000000e+00  1.00000000e+00
  1.96665025e-03  1.52306019e-02  7.61269097e-02  2.60801033e-01  6.16462078e-01
  2.21006028e-01  1.14660081e-01  9.19999648e-01 -3.03068213e-03  4.02486927e-02
  2.37593957e-01  8.15853851e-01  1.00000000e+00  1.00000000e+00  1.00000000e+00
  1.00000000e+00  1.00000000e+00  1.00000000e+00  1.00000000e+00  1.00000000e+00
  1.96665025e-03  1.52306019e-02  7.61269097e-02  2.60801033e-01  6.16462078e-01
  2.21006028e-01  1.14660081e-01  9.19999648e-01 -3.03068213e-03  4.02486927e-02
  2.37593957e-01  8.15853851e-01  1.00000000e+00  1.00000000e+00  1.00000000e+00
  1.00000000e+00  1.00000000e+00  1.00000000e+00  1.00000000e+00  1.00000000e+00
  1.96978815e-03  1.49612859e-02  7.35005308e-02  2.48936766e-01  6.02459433e-01
  2.56201759e-01  1.11906080e-01  9.21666655e-01 -2.56919183e-03  3.83119186e-02
  2.37403116e-01  8.17592398e-01  1.00000000e+00  1.00000000e+00  1.00000000e+00
  1.00000000e+00  1.00000000e+00  1.00000000e+00  1.00000000e+00  1.00000000e+00
  1.96665025e-03  1.52306019e-02  7.61269097e-02  2.60801033e-01  6.16462078e-01
  2.21006028e-01  1.14660081e-01  9.19999648e-01 -3.03068213e-03  4.02486927e-02
  2.37593957e-01  8.15853851e-01  1.00000000e+00  1.00000000e+00  1.00000000e+00
  1.00000000e+00  1.00000000e+00  1.00000000e+00  1.00000000e+00  1.00000000e+00
  1.96978815e-03  1.49612859e-02  7.35005308e-02  2.48936766e-01  6.02459433e-01
  2.56201759e-01  1.11906080e-01  9.21666655e-01 -2.56919183e-03  3.83119186e-02
  2.37403116e-01  8.17592398e-01  1.00000000e+00  1.00000000e+00  1.00000000e+00
  1.00000000e+00  1.00000000e+00  1.00000000e+00  1.00000000e+00  1.00000000e+00
  1.96665025e-03  1.52306019e-02  7.61269097e-02  2.60801033e-01  6.16462078e-01
  2.21006028e-01  1.14660081e-01  9.19999648e-01 -3.03068213e-03  4.02486927e-02
  2.37593957e-01  8.15853851e-01  1.00000000e+00  1.00000000e+00  1.00000000e+00
  1.00000000e+00  1.00000000e+00  1.00000000e+00  1.00000000e+00  1.00000000e+00
  1.96978815e-03  1.49612859e-02  7.35005308e-02  2.48936766e-01  6.02459433e-01
  2.56201759e-01  1.11906080e-01  9.21666655e-01 -2.56919183e-03  3.83119186e-02
  2.37403116e-01  8.17592398e-01  1.00000000e+00  1.00000000e+00  1.00000000e+00
  1.00000000e+00  1.00000000e+00  1.00000000e+00  1.00000000e+00  1.00000000e+00
  1.96665025e-03  1.52306019e-02  7.61269097e-02  2.60801033e-01  6.16462078e-01
  2.21006028e-01  1.14660081e-01  9.19999648e-01 -3.03068213e-03  4.02486927e-02
  2.37593957e-01  8.15853851e-01  1.00000000e+00  1.00000000e+00  1.00000000e+00
  1.00000000e+00  1.00000000e+00  1.00000000e+00  1.00000000e+00  1.00000000e+00
  1.96978815e-03  1.49612859e-02  7.35005308e-02  2.48936766e-01  6.02459433e-01
  2.56201759e-01  1.11906080e-01  9.21666655e-01 -2.56919183e-03  3.83119186e-02
  2.37403116e-01  8.17592398e-01  1.00000000e+00  1.00000000e+00  1.00000000e+00
  1.00000000e+00  1.00000000e+00  1.00000000e+00  1.00000000e+00  1.00000000e+00
Coordinates of each shell                  R   N=         330
 -1.29626291e+00  2.15634747e-05 -7.62089615e-05 -1.29626291e+00  2.15634747e-05
 -7.62089615e-05 -1.29626291e+00  2.15634747e-05 -7.62089615e-05 -1.29626291e+00
  2.15634747e-05 -7.62089615e-05 -1.29626291e+00  2.15634747e-05 -7.62089615e-05
 -1.29626291e+00  2.15634747e-05 -7.62089615e-05 -1.29626291e+00  2.15634747e-05
 -7.62089615e-05 -1.29626291e+00  2.15634747e-05 -7.62089615e-05 -1.29626291e+00
  2.15634747e-05 -7.62089615e-05 -1.29626291e+00  2.15634747e-05 -7.62089615e-05
 -1.29626291e+00  2.15634747e-05 -7.62089615e-05  1.29699977e+00 -1.87369940e-05
 -2.92669487e-05  1.29699977e+00 -1.87369940e-05 -2.92669487e-05  1.29699977e+00
 -1.87369940e-05 -2.92669487e-05  1.29699977e+00 -1.87369940e-05 -2.92669487e-05
  1.29699977e+00 -1.87369940e-05 -2.92669487e-05  1.29699977e+00 -1.87369940e-05
 -2.92669487e-05  1.29699977e+00 -1.87369940e-05 -2.92669487e-05  1.29699977e+00
 -1.87369940e-05 -2.92669487e-05  1.29699977e+00 -1.87369940e-05 -2.92669487e-05
  1.29699977e+00 -1.87369940e-05 -2.92669487e-05  1.29699977e+00 -1.87369940e-05
 -2.92669487e-05  2.70971149e+00  2.30315819e+00  5.89101092e-05  2.70971149e+00
  2.30315819e+00  5.89101092e-05  2.70971149e+00  2.30315819e+00  5.89101092e-05
  2.70971149e+00  2.30315819e+00  5.89101092e-05  2.70971149e+00  2.30315819e+00
  5.89101092e-05  2.70971149e+00  2.30315819e+00  5.89101092e-05  2.70971149e+00
  2.30315819e+00  5.89101092e-05  2.70971149e+00  2.30315819e+00  5.89101092e-05
  2.70971149e+00  2.30315819e+00  5.89101092e-05  2.70971149e+00  2.30315819e+00
  5.89101092e-05  2.70971149e+00  2.30315819e+00  5.89101092e-05  3.89364937e+00
  4.15422438e+00  1.30090169e-04  3.89364937e+00  4.15422438e+00  1.30090169e-04
  3.89364937e+00  4.15422438e+00  1.30090169e-04  3.89364937e+00  4.15422438e+00
  1.30090169e-04  3.89364937e+00  4.15422438e+00  1.30090169e-04  3.89364937e+00
  4.15422438e+00  1.30090169e-04  3.89364937e+00  4.15422438e+00  1.30090169e-04
  3.89364937e+00  4.15422438e+00  1.30090169e-04  3.89364937e+00  4.15422438e+00
  1.30090169e-04  3.89364937e+00  4.15422438e+00  1.30090169e-04  3.89364937e+00
  4.15422438e+00  1.30090169e-04 -2.70910500e+00  2.30311579e+00  1.01359754e-05
 -2.70910500e+00  2.30311579e+00  1.01359754e-05 -2.70910500e+00  2.30311579e+00
  1.01359754e-05 -2.70910500e+00  2.30311579e+00  1.01359754e-05 -2.70910500e+00
  2.30311579e+00  1.01359754e-05 -2.70910500e+00  2.30311579e+00  1.01359754e-05
 -2.70910500e+00  2.30311579e+00  1.01359754e-05 -2.70910500e+00  2.30311579e+00
  1.01359754e-05 -2.70910500e+00  2.30311579e+00  1.01359754e-05 -2.70910500e+00
  2.30311579e+00  1.01359754e-05 -2.70910500e+00  2.30311579e+00  1.01359754e-05
 -3.89431376e+00  4.15336944e+00  7.81368088e-05 -3.89431376e+00  4.15336944e+00
  7.81368088e-05 -3.89431376e+00  4.15336944e+00  7.81368088e-05 -3.89431376e+00
  4.15336944e+00  7.81368088e-05 -3.89431376e+00  4.15336944e+00  7.81368088e-05
 -3.89431376e+00  4.15336944e+00  7.81368088e-05 -3.89431376e+00  4.15336944e+00
  7.81368088e-05 -3.89431376e+00  4.15336944e+00  7.81368088e-05 -3.89431376e+00
  4.15336944e+00  7.81368088e-05 -3.89431376e+00  4.15336944e+00  7.81368088e-05
 -3.89431376e+00  4.15336944e+00  7.81368088e-05 -2.70916964e+00 -2.30303130e+00
 -7.26672216e-05 -2.70916964e+00 -2.30303130e+00 -7.26672216e-05 -2.70916964e+00
 -2.30303130e+00 -7.26672216e-05 -2.70916964e+00 -2.30303130e+00 -7.26672216e-05
 -2.70916964e+00 -2.30303130e+00 -7.26672216e-05 -2.70916964e+00 -2.30303130e+00
 -7.26672216e-05 -2.70916964e+00 -2.30303130e+00 -7.26672216e-05 -2.70916964e+00
 -2.30303130e+00 -7.26672216e-05 -2.70916964e+00 -2.30303130e+00 -7.26672216e-05
 -2.70916964e+00 -2.30303130e+00 -7.26672216e-05 -2.70916964e+00 -2.30303130e+00
 -7.26672216e-05 -3.89442126e+00 -4.15325766e+00 -7.04286438e-05 -3.89442126e+00
 -4.15325766e+00 -7.04286438e-05 -3.89442126e+00 -4.15325766e+00 -7.04286438e-05
 -3.89442126e+00 -4.15325766e+00 -7.04286438e-05 -3.89442126e+00 -4.15325766e+00
 -7.04286438e-05 -3.89442126e+00 -4.15325766e+00 -7.04286438e-05 -3.89442126e+00
 -4.15325766e+00 -7.04286438e-05 -3.89442126e+00 -4.15325766e+00 -7.04286438e-05
 -3.89442126e+00 -4.15325766e+00 -7.04286438e-05 -3.89442126e+00 -4.15325766e+00
 -7.04286438e-05 -3.89442126e+00 -4.15325766e+00 -7.04286438e-05  2.70964186e+00
 -2.30324132e+00 -2.54248572e-05  2.70964186e+00 -2.30324132e+00 -2.54248572e-05
  2.70964186e+00 -2.30324132e+00 -2.54248572e-05  2.70964186e+00 -2.30324132e+00
 -2.54248572e-05  2.70964186e+00 -2.30324132e+00 -2.54248572e-05  2.70964186e+00
 -2.30324132e+00 -2.54248572e-05  2.70964186e+00 -2.30324132e+00 -2.54248572e-05
  2.70964186e+00 -2.30324132e+00 -2.54248572e-05  2.70964186e+00 -2.30324132e+00
 -2.54248572e-05  2.70964186e+00 -2.30324132e+00 -2.54248572e-05  2.70964186e+00
 -2.30324132e+00 -2.54248572e-05  3.89352979e+00 -4.15433975e+00 -2.25191569e-05
  3.89352979e+00 -4.15433975e+00 -2.25191569e-05  3.89352979e+00 -4.15433975e+00
 -2.25191569e-05  3.89352979e+00 -4.15433975e+00 -2.25191569e-05  3.89352979e+00
 -4.15433975e+00 -2.25191569e-05  3.89352979e+00 -4.15433975e+00 -2.25191569e-05
  3.89352979e+00 -4.15433975e+00 -2.25191569e-05  3.89352979e+00 -4.15433975e+00
 -2.25191569e-05  3.89352979e+00 -4.15433975e+00 -2.25191569e-05  3.89352979e+00
 -4.15433975e+00 -2.25191569e-05  3.89352979e+00 -4.15433975e+00 -2.25191569e-05
Total Energy                               R     -4.450187513079658e+02
Alpha Orbital Energies                     R   N=         270
 -1.56575092e+01 -1.56575085e+01 -1.56575076e+01 -1.56575069e+01 -1.14341182e+01
 -1.14327195e+01 -1.13527597e+01 -1.13527511e+01 -1.13527468e+01 -1.13527404e+01
 -1.31916067e+00 -1.29400123e+00 -1.28726086e+00 -1.28366062e+00 -1.22230937e+00
 -1.07073780e+00 -9.21229093e-01 -8.40540181e-01 -8.15038346e-01 -6.56992080e-01
 -6.35490629e-01 -6.35055255e-01 -6.32554973e-01 -6.24318457e-01 -5.72206723e-01
 -5.51568970e-01 -5.48559761e-01 -5.43174289e-01 -5.40985673e-01 -5.34400086e-01
 -5.20592724e-01 -4.40639973e-01 -6.86426908e-02  3.80119871e-02  6.18239000e-02
  7.22760528e-02  7.58469781e-02  7.68532826e-02  9.18841932e-02  9.31767287e-02
  9.57143483e-02  1.00682577e-01  1.10497284e-01  1.13300583e-01  1.18651670e-01
  1.23829432e-01  1.30820259e-01  1.34022683e-01  1.38817816e-01  1.49257717e-01
  1.63639823e-01  1.68629674e-01  1.81526055e-01  1.82932310e-01  1.86685129e-01
  1.90429448e-01  2.06738726e-01  2.25158151e-01  2.33466616e-01  2.39142761e-01
  2.42869893e-01  2.49341812e-01  2.76346209e-01  2.85322220e-01  2.87939262e-01
  2.88679041e-01  2.91299582e-01  2.92810494e-01  2.93799328e-01  3.10917600e-01
  3.11238442e-01  3.21615397e-01  3.29362583e-01  3.36864268e-01  3.39924637e-01
  3.47278932e-01  3.47384088e-01  3.51967742e-01  3.73109398e-01  3.75797550e-01
  3.85349001e-01  3.94714106e-01  3.95819643e-01  4.13578015e-01  5.43525861e-01
  6.07526967e-01  6.20430385e-01  6.38848632e-01  6.39144823e-01  6.39515600e-01
  6.42783378e-01  6.55763044e-01  6.91221385e-01  7.10539877e-01  7.16868290e-01
  7.18076939e-01  7.24125475e-01  7.46466369e-01  7.49599547e-01  7.50826486e-01
  7.70644339e-01  7.70957059e-01  7.71673541e-01  8.04330834e-01  8.08016572e-01
  8.43351727e-01  8.46253135e-01  8.47517283e-01  8.47854591e-01  8.98393477e-01
  9.09564198e-01  9.18694499e-01  9.31007374e-01  9.49422452e-01  9.72119130e-01
  9.78336266e-01  9.85089653e-01  9.88037129e-01  9.92508149e-01  1.00936437e+00
  1.01083293e+00  1.01426233e+00  1.01583783e+00  1.03036706e+00  1.04589326e+00
  1.06921063e+00  1.07282678e+00  1.09586383e+00  1.10053711e+00  1.11508557e+00
  1.12363918e+00  1.12881235e+00  1.15280105e+00  1.21959623e+00  1.23977805e+00
  1.25697502e+00  1.25838923e+00  1.28278216e+00  1.28329707e+00  1.30803532e+00
  1.31652282e+00  1.34633425e+00  1.38493208e+00  1.41177212e+00  1.42332442e+00
  1.44055201e+00  1.47276622e+00  1.49791983e+00  1.50009496e+00  1.51129077e+00
  1.55857720e+00  1.57640208e+00  1.60711075e+00  1.61255381e+00  1.65670174e+00
  1.69373595e+00  1.70115401e+00  1.70555901e+00  1.71811879e+00  1.73979971e+00
  1.79523056e+00  1.82952223e+00  1.90360258e+00  2.06033386e+00  2.07607709e+00
  2.07653799e+00  2.11383916e+00  2.18975636e+00  2.21487502e+00  2.25015732e+00
  2.27122852e+00  2.28726800e+00  2.29335115e+00  2.30336661e+00  2.35786459e+00
  2.40991895e+00  2.48011963e+00  2.50228335e+00  2.59102045e+00  2.61668338e+00
  3.09852161e+00  3.13071074e+00  3.19704929e+00  3.19722753e+00  3.20631622e+00
  3.21369841e+00  3.30631246e+00  3.32339171e+00  3.33603516e+00  3.35722497e+00
  3.38906390e+00  3.41572429e+00  3.42281651e+00  3.44107334e+00  3.44678937e+00
  3.53682136e+00  3.55016184e+00  3.55385665e+00  3.56571912e+00  3.57182667e+00
  3.57421920e+00  3.58194154e+00  3.61341732e+00  3.62159591e+00  3.64856265e+00
  3.65282201e+00  3.67356991e+00  3.71627682e+00  3.72088041e+00  3.75338846e+00
  3.80800483e+00  3.83368493e+00  3.90894653e+00  3.94891769e+00  3.95098522e+00
  3.97610913e+00  4.00914074e+00  4.02011569e+00  4.08381338e+00  4.08396056e+00
  4.15393520e+00  4.22761655e+00  4.23556111e+00  4.28659253e+00  4.35766471e+00
  4.43314374e+00  4.44241313e+00  4.48228424e+00  4.50940811e+00  4.56606015e+00
  4.58015164e+00  4.58860063e+00  4.66609006e+00  4.77045673e+00  4.86656808e+00
  4.89164847e+00  5.03595594e+00  5.08351346e+00  5.17662653e+00  5.18030331e+00
  5.18211920e+00  5.18869341e+00  5.19120738e+00  5.19525902e+00  5.20546107e+00
  5.20943790e+00  5.25842828e+00  5.40462207e+00  5.46992026e+00  5.51686989e+00
  5.51690225e+00  5.51855444e+00  5.56412812e+00  5.58249856e+00  5.60478282e+00
  5.61231268e+00  6.08293600e+00  6.09992316e+00  6.19383081e+00  6.20008485e+00
  2.47786046e+01  2.52541001e+01  2.52802907e+01  2.52866013e+01  2.52968867e+01
  2.53877294e+01  3.71542295e+01  3.72344392e+01  3.72344972e+01  3.72466356e+01
Alpha MO coefficients                      R   N=       72900
  3.57315996e-08 -1.59886270e-07  1.64659154e-07 -1.32576838e-06 -2.71732584e-11
  3.27618113e-06 -1.40840165e-07  6.27335459e-05  1.17369507e-09 -3.07292938e-05
  8.39285731e-06 -7.54238626e-04 -1.39492512e-08 -2.25478012e-07 -2.26965036e-10
  2.48496262e-10  7.20189021e-08 -1.32327610e-05  2.15813885e-06  6.11328173e-09
 -7.44449571e-10  2.17016349e-06  3.41149137e-04  1.42397413e-04 -3.07130434e-05
  1.40374608e-02  2.55263525e-07  1.34617193e-08  1.50955117e-07 -7.96808364e-07
 -2.98129856e-05 -5.84837670e-10 -8.60841971e-06  3.60370968e-06  6.83358672e-05
  1.43500182e-09  1.41231652e-04  3.60921666e-05  2.24330750e-03  4.22506384e-08
  1.82287401e-07 -3.21425316e-10 -9.83336406e-10  2.16312952e-07 -1.78621810e-05
 -6.64887156e-06  1.01585245e-08  1.89425468e-08 -6.64169729e-06  5.50205579e-04
 -2.62207416e-04 -5.67298325e-05 -1.87281494e-02 -3.44002699e-07  7.04565051e-05
 -8.84317628e-05  6.73220737e-05  1.09838457e-04  4.12403626e-09  8.31863597e-04
  5.73036840e-04  8.87608683e-04  3.46142227e-08  1.15204840e-03  1.64492677e-03
  2.65259342e-03  1.00681256e-07 -8.31279931e-05  5.10266053e-09  7.46665049e-09
 -5.79360900e-05  1.24953060e-04 -1.11370158e-04  1.04177867e-08  1.06267343e-08
  1.58576969e-05  2.02775785e-04  2.22231774e-02 -3.08812139e-03 -3.41453212e-03
 -1.64677411e-07  4.00464089e-01  3.36278489e-01 -8.48770140e-04 -1.32579371e-03
 -5.01882454e-08  3.07156591e-03  4.61277132e-04  7.44519440e-04  2.74892716e-08
 -3.64782614e-03  5.73026881e-04  1.00041962e-03  3.59293771e-08 -1.49771414e-04
  8.71442539e-09  1.42029585e-08 -1.09071290e-04  2.27826216e-04  1.62491318e-04
 -8.60099036e-09 -1.43579177e-08  1.39494110e-04 -2.35123427e-04 -1.30873463e-03
  3.98611925e-04  4.61027070e-04  1.94393444e-08 -9.12368405e-06  9.92626314e-06
  5.67592855e-06 -6.99482113e-06  7.69958547e-10 -6.63096418e-05  1.29483822e-04
 -2.25313070e-04 -1.23371331e-08 -3.65755708e-04  4.08774168e-04 -7.82888991e-04
 -2.14773835e-08  1.03481170e-05  4.51519453e-10 -8.79752301e-10  8.18147663e-06
  1.78937243e-05  4.84906179e-05  2.89003228e-09  2.36425175e-10 -4.36342968e-05
  7.80463956e-05 -1.39140763e-02 -1.58270713e-03  1.87984896e-03  1.62553884e-07
 -5.33592375e-02 -4.48064078e-02 -1.12908349e-04  1.83204672e-04  6.83755868e-09
 -4.25899763e-04  6.33821750e-05 -1.38720625e-04 -6.06537952e-09  9.62344286e-04
  1.97184420e-04 -2.87800089e-04 -8.86376273e-09  2.12608793e-05  1.16803926e-09
 -2.08105660e-09  1.26261688e-05  2.95691272e-05 -4.31370759e-05 -2.13925580e-09
  4.44828481e-09 -3.12066874e-05 -4.86334838e-05  5.40600679e-04  6.11623386e-05
 -1.31131916e-04 -2.75594578e-08  9.36545990e-06 -1.02524066e-05 -6.37309693e-06
 -7.73479225e-06 -1.02045392e-09  6.93656825e-05 -1.27852698e-04 -2.24313273e-04
  4.31889304e-09  3.80493706e-04 -3.93742647e-04 -7.62718018e-04 -6.58145037e-09
 -1.07281479e-05  1.92879165e-10  5.01149058e-11 -8.27552699e-06  1.84131154e-05
 -4.84205315e-05 -2.32453402e-10  1.50250554e-09  4.45599144e-05  7.78893376e-05
  1.37321239e-02  1.55516499e-03  1.84395437e-03 -9.56539447e-08  5.47064325e-02
  4.59377063e-02  1.15586004e-04  1.87474192e-04 -3.23068733e-10  4.35450877e-04
 -6.39319036e-05 -1.39922510e-04  1.07816533e-09 -9.50787894e-04 -1.96003630e-04
 -2.85025898e-04 -1.36764674e-09 -2.18257318e-05 -1.17093509e-10 -3.23973646e-10
 -1.30025415e-05  3.04694561e-05  4.33499660e-05  3.97016121e-10  6.45872261e-10
  3.12429593e-05 -4.90134926e-05 -5.25549756e-04 -5.67728939e-05 -1.25856456e-04
  2.28809272e-08 -6.69428081e-05  8.39789466e-05 -6.40788227e-05  1.04877742e-04
 -6.71176276e-11 -7.86993307e-04 -5.44923689e-04  8.43620059e-04 -1.82094530e-09
 -1.11040889e-03 -1.55766659e-03  2.51159890e-03 -3.07449115e-09  7.89058665e-05
 -4.97150124e-10  0.00000000e+00  5.47591897e-05  1.18213572e-04  1.08395952e-04
 -2.94343255e-09  4.16736850e-09 -2.04409818e-05  1.99540223e-04 -2.19079358e-02
  3.04591574e-03 -3.34505849e-03  3.92474601e-08 -3.80700080e-01 -3.19682334e-01
  8.06665270e-04 -1.26049895e-03  1.17615611e-09 -2.91798217e-03 -4.37817502e-04
  7.08742169e-04  2.08417720e-11  3.46493949e-03 -5.40420337e-04  9.53648688e-04
  1.25577892e-09  1.42549105e-04 -3.00637255e-10  5.65595750e-10  1.03928424e-04
  2.16521741e-04 -1.54824378e-04 -1.46132169e-10  1.24877219e-09 -1.34791630e-04
 -2.22196097e-04  1.25327914e-03 -3.84314997e-04  4.38627467e-04 -2.38517507e-09
 -1.40288814e-06  6.71197810e-06 -4.95720690e-06  2.99038422e-08 -1.02731993e-10
 -1.48865141e-04 -1.73037571e-06  1.39577884e-06 -4.80867865e-10  1.52122686e-03
 -4.10419586e-04 -2.31934441e-05  1.74393086e-08  9.40209418e-06 -4.90931481e-10
 -2.38842589e-10 -2.45292617e-06 -3.61671606e-07 -1.00079637e-04  2.03420562e-09
  4.89237816e-09 -1.00179596e-04  9.51853377e-06 -6.24330301e-03  1.35243626e-03
  3.83449751e-04 -5.26462177e-08 -4.64919202e-07 -6.37500173e-06  3.15472551e-05
 -7.28506945e-07  1.08919891e-09  3.51408626e-04 -1.43959240e-04  1.54492048e-06
 -4.95351900e-09 -5.71738455e-03 -1.46041348e-03  5.66105552e-05 -5.26716775e-08
 -7.76290749e-06 -7.94476018e-11  3.67401567e-10 -8.53556623e-06 -4.65329009e-07
  2.70633056e-04 -4.29933808e-09 -1.30382713e-08  2.71012745e-04  1.41947915e-05
  1.07930109e-02  2.32191955e-03 -4.88691088e-04  9.01677875e-08 -6.83827842e-05
  8.66659989e-05 -6.25246513e-05 -9.59253037e-05 -3.66221272e-09 -8.75067125e-04
 -5.50000057e-04 -8.60174578e-04 -3.34059943e-08 -7.90051695e-04 -1.72065624e-03
 -2.77894935e-03 -1.03909875e-07  8.21187469e-05 -4.75972457e-09 -7.90239110e-09
  6.22235586e-05 -1.31297425e-04  5.68092086e-05 -1.44990808e-09 -4.52565429e-09
  9.34411345e-05 -5.98741002e-05 -5.92684594e-03  7.92773813e-04  1.34258565e-03
  4.37772898e-08 -3.84555435e-01 -3.22917263e-01  8.18892532e-04  1.27099037e-03
  4.83174095e-08 -2.99022393e-03 -4.57514675e-04 -6.97069896e-04 -2.66653769e-08
  3.58358556e-03 -6.39332865e-04 -9.14819169e-04 -3.81845545e-08  1.40362697e-04
 -8.44948897e-09 -1.35650267e-08  1.00158264e-04 -2.19738140e-04 -1.49270681e-04
  1.04162861e-08  1.42074316e-08 -9.09053945e-05  2.52531379e-04  1.09305825e-03
 -2.80766085e-04 -4.42745551e-04 -1.58269686e-08 -1.60072703e-06  2.38183979e-06
  1.09049085e-05 -1.01262583e-05 -4.00880580e-10 -1.84283553e-05 -5.73173191e-05
  5.78231290e-05  2.08405726e-09 -2.63868944e-04 -3.77820951e-04  5.24208104e-04
  1.85476793e-08  3.69704867e-06  5.99612890e-11 -1.11358269e-10 -1.04072747e-06
  4.16212663e-06 -3.02831293e-06  2.01232704e-09 -2.13496373e-09 -2.42864397e-05
 -4.06239929e-06  3.58084964e-03  5.50799518e-04 -7.36298440e-04 -2.35053035e-08
 -8.80689328e-03 -7.39603884e-03 -1.47791461e-05  2.57041858e-05  6.77787434e-10
 -5.02243390e-05 -1.06669180e-05  7.71746124e-06  1.23189685e-09 -3.88388657e-04
 -5.13017558e-05  9.44291262e-05  5.18663150e-09  4.72204198e-06  2.19176007e-10
 -2.91549450e-10  2.81892601e-06  7.59869058e-06  2.22364663e-06  8.13267297e-10