Generated by Psi4
        SP                           RHF                 6-311+G(2D,P)
Number of atoms                            I                9
Charge                                     I                0
Multiplicity                               I                1
Number of electrons                        I               52
Number of alpha electrons                  I               26
Number of beta electrons                   I               26
Number of basis functions                  I              222
Number of independent functions            I              222
Atomic numbers                             I   N=           9
           6           6           6           7           6           7
           6           7           1
Nuclear charges                            R   N=           9
  6.00000000e+00  6.00000000e+00  6.00000000e+00  7.00000000e+00  6.00000000e+00
  7.00000000e+00  6.00000000e+00  7.00000000e+00  1.00000000e+00
Current cartesian coordinates              R   N=          27
 -2.06698261e+00  7.68131125e-01 -2.94880526e-05  5.00502326e-01  7.63659944e-01
 -5.78938295e-05  1.86943235e+00  3.10313499e+00  7.61795720e-05  2.98173387e+00
  4.99715520e+00  1.82398416e-04 -3.55566740e+00 -1.46541440e+00 -3.63596681e-05
 -4.83713882e+00 -3.25272674e+00 -4.26237804e-05  1.96484672e+00 -1.51610438e+00
 -5.52357057e-05  3.18005717e+00 -3.34547774e+00 -5.53964250e-05 -3.07075105e+00
  2.55870231e+00  5.16140035e-05
Integer atomic weights                     I   N=           9
          12          12          12          14          12          14
          12          14           1
Real atomic weights                        R   N=           9
  1.20000000e+01  1.20000000e+01  1.20000000e+01  1.40030740e+01  1.20000000e+01
  1.40030740e+01  1.20000000e+01  1.40030740e+01  1.00782503e+00
Number of primitive shells                 I              166
Number of contracted shells                I               92
Pure/Cartesian d shells                    I                0
Pure/Cartesian f shells                    I                0
Highest angular momentum                   I                2
Largest degree of contraction              I                6
Shell types                                I   N=          92
           0           0           1           0           1           0
           1          -2          -2           0           1           0
           0           1           0           1           0           1
          -2          -2           0           1           0           0
           1           0           1           0           1          -2
          -2           0           1           0           0           1
           0           1           0           1          -2          -2
           0           1           0           0           1           0
           1           0           1          -2          -2           0
           1           0           0           1           0           1
           0           1          -2          -2           0           1
           0           0           1           0           1           0
           1          -2          -2           0           1           0
           0           1           0           1           0           1
          -2          -2           0           1           0           0
           0           1
Number of primitives per shell             I   N=          92
           6           3           3           1           1           1
           1           1           1           1           1           6
           3           3           1           1           1           1
           1           1           1           1           6           3
           3           1           1           1           1           1
           1           1           1           6           3           3
           1           1           1           1           1           1
           1           1           6           3           3           1
           1           1           1           1           1           1
           1           6           3           3           1           1
           1           1           1           1           1           1
           6           3           3           1           1           1
           1           1           1           1           1           6
           3           3           1           1           1           1
           1           1           1           1           3           1
           1           1
Shell to atom map                          I   N=          92
           1           1           1           1           1           1
           1           1           1           1           1           2
           2           2           2           2           2           2
           2           2           2           2           3           3
           3           3           3           3           3           3
           3           3           3           4           4           4
           4           4           4           4           4           4
           4           4           5           5           5           5
           5           5           5           5           5           5
           5           6           6           6           6           6
           6           6           6           6           6           6
           7           7           7           7           7           7
           7           7           7           7           7           8
           8           8           8           8           8           8
           8           8           8           8           9           9
           9           9
Primitive exponents                        R   N=         166
  4.56324000e+03  6.82024000e+02  1.54973000e+02  4.44553000e+01  1.30290000e+01
  1.82773000e+00  2.09642000e+01  4.80331000e+00  1.45933000e+00  2.09642000e+01
  4.80331000e+00  1.45933000e+00  4.83456000e-01  4.83456000e-01  1.45585000e-01
  1.45585000e-01  1.25200000e+00  3.13000000e-01  4.38000000e-02  4.38000000e-02
  4.56324000e+03  6.82024000e+02  1.54973000e+02  4.44553000e+01  1.30290000e+01
  1.82773000e+00  2.09642000e+01  4.80331000e+00  1.45933000e+00  2.09642000e+01
  4.80331000e+00  1.45933000e+00  4.83456000e-01  4.83456000e-01  1.45585000e-01
  1.45585000e-01  1.25200000e+00  3.13000000e-01  4.38000000e-02  4.38000000e-02
  4.56324000e+03  6.82024000e+02  1.54973000e+02  4.44553000e+01  1.30290000e+01
  1.82773000e+00  2.09642000e+01  4.80331000e+00  1.45933000e+00  2.09642000e+01
  4.80331000e+00  1.45933000e+00  4.83456000e-01  4.83456000e-01  1.45585000e-01
  1.45585000e-01  1.25200000e+00  3.13000000e-01  4.38000000e-02  4.38000000e-02
  6.29348000e+03  9.49044000e+02  2.18776000e+02  6.36916000e+01  1.88282000e+01
  2.72023000e+00  3.06331000e+01  7.02614000e+00  2.11205000e+00  3.06331000e+01
  7.02614000e+00  2.11205000e+00  6.84009000e-01  6.84009000e-01  2.00878000e-01
  2.00878000e-01  1.82600000e+00  4.56500000e-01  6.39000000e-02  6.39000000e-02
  4.56324000e+03  6.82024000e+02  1.54973000e+02  4.44553000e+01  1.30290000e+01
  1.82773000e+00  2.09642000e+01  4.80331000e+00  1.45933000e+00  2.09642000e+01
  4.80331000e+00  1.45933000e+00  4.83456000e-01  4.83456000e-01  1.45585000e-01
  1.45585000e-01  1.25200000e+00  3.13000000e-01  4.38000000e-02  4.38000000e-02
  6.29348000e+03  9.49044000e+02  2.18776000e+02  6.36916000e+01  1.88282000e+01
  2.72023000e+00  3.06331000e+01  7.02614000e+00  2.11205000e+00  3.06331000e+01
  7.02614000e+00  2.11205000e+00  6.84009000e-01  6.84009000e-01  2.00878000e-01
  2.00878000e-01  1.82600000e+00  4.56500000e-01  6.39000000e-02  6.39000000e-02
  4.56324000e+03  6.82024000e+02  1.54973000e+02  4.44553000e+01  1.30290000e+01
  1.82773000e+00  2.09642000e+01  4.80331000e+00  1.45933000e+00  2.09642000e+01
  4.80331000e+00  1.45933000e+00  4.83456000e-01  4.83456000e-01  1.45585000e-01
  1.45585000e-01  1.25200000e+00  3.13000000e-01  4.38000000e-02  4.38000000e-02
  6.29348000e+03  9.49044000e+02  2.18776000e+02  6.36916000e+01  1.88282000e+01
  2.72023000e+00  3.06331000e+01  7.02614000e+00  2.11205000e+00  3.06331000e+01
  7.02614000e+00  2.11205000e+00  6.84009000e-01  6.84009000e-01  2.00878000e-01
  2.00878000e-01  1.82600000e+00  4.56500000e-01  6.39000000e-02  6.39000000e-02
  3.38650000e+01  5.09479000e+00  1.15879000e+00  3.25840000e-01  1.02741000e-01
  7.50000000e-01
Contraction coefficients                   R   N=         166
  1.96665025e-03  1.52306019e-02  7.61269097e-02  2.60801033e-01  6.16462078e-01
  2.21006028e-01  1.14660081e-01  9.19999648e-01 -3.03068213e-03  4.02486927e-02
  2.37593957e-01  8.15853851e-01  1.00000000e+00  1.00000000e+00  1.00000000e+00
  1.00000000e+00  1.00000000e+00  1.00000000e+00  1.00000000e+00  1.00000000e+00
  1.96665025e-03  1.52306019e-02  7.61269097e-02  2.60801033e-01  6.16462078e-01
  2.21006028e-01  1.14660081e-01  9.19999648e-01 -3.03068213e-03  4.02486927e-02
  2.37593957e-01  8.15853851e-01  1.00000000e+00  1.00000000e+00  1.00000000e+00
  1.00000000e+00  1.00000000e+00  1.00000000e+00  1.00000000e+00  1.00000000e+00
  1.96665025e-03  1.52306019e-02  7.61269097e-02  2.60801033e-01  6.16462078e-01
  2.21006028e-01  1.14660081e-01  9.19999648e-01 -3.03068213e-03  4.02486927e-02
  2.37593957e-01  8.15853851e-01  1.00000000e+00  1.00000000e+00  1.00000000e+00
  1.00000000e+00  1.00000000e+00  1.00000000e+00  1.00000000e+00  1.00000000e+00
  1.96978815e-03  1.49612859e-02  7.35005308e-02  2.48936766e-01  6.02459433e-01
  2.56201759e-01  1.11906080e-01  9.21666655e-01 -2.56919183e-03  3.83119186e-02
  2.37403116e-01  8.17592398e-01  1.00000000e+00  1.00000000e+00  1.00000000e+00
  1.00000000e+00  1.00000000e+00  1.00000000e+00  1.00000000e+00  1.00000000e+00
  1.96665025e-03  1.52306019e-02  7.61269097e-02  2.60801033e-01  6.16462078e-01
  2.21006028e-01  1.14660081e-01  9.19999648e-01 -3.03068213e-03  4.02486927e-02
  2.37593957e-01  8.15853851e-01  1.00000000e+00  1.00000000e+00  1.00000000e+00
  1.00000000e+00  1.00000000e+00  1.00000000e+00  1.00000000e+00  1.00000000e+00
  1.96978815e-03  1.49612859e-02  7.35005308e-02  2.48936766e-01  6.02459433e-01
  2.56201759e-01  1.11906080e-01  9.21666655e-01 -2.56919183e-03  3.83119186e-02
  2.37403116e-01  8.17592398e-01  1.00000000e+00  1.00000000e+00  1.00000000e+00
  1.00000000e+00  1.00000000e+00  1.00000000e+00  1.00000000e+00  1.00000000e+00
  1.96665025e-03  1.52306019e-02  7.61269097e-02  2.60801033e-01  6.16462078e-01
  2.21006028e-01  1.14660081e-01  9.19999648e-01 -3.03068213e-03  4.02486927e-02
  2.37593957e-01  8.15853851e-01  1.00000000e+00  1.00000000e+00  1.00000000e+00
  1.00000000e+00  1.00000000e+00  1.00000000e+00  1.00000000e+00  1.00000000e+00
  1.96978815e-03  1.49612859e-02  7.35005308e-02  2.48936766e-01  6.02459433e-01
  2.56201759e-01  1.11906080e-01  9.21666655e-01 -2.56919183e-03  3.83119186e-02
  2.37403116e-01  8.17592398e-01  1.00000000e+00  1.00000000e+00  1.00000000e+00
  1.00000000e+00  1.00000000e+00  1.00000000e+00  1.00000000e+00  1.00000000e+00
  2.54938145e-02  1.90373109e-01  8.52161486e-01  1.00000000e+00  1.00000000e+00
  1.00000000e+00
Coordinates of each shell                  R   N=         276
 -2.06698261e+00  7.68131125e-01 -2.94880526e-05 -2.06698261e+00  7.68131125e-01
 -2.94880526e-05 -2.06698261e+00  7.68131125e-01 -2.94880526e-05 -2.06698261e+00
  7.68131125e-01 -2.94880526e-05 -2.06698261e+00  7.68131125e-01 -2.94880526e-05
 -2.06698261e+00  7.68131125e-01 -2.94880526e-05 -2.06698261e+00  7.68131125e-01
 -2.94880526e-05 -2.06698261e+00  7.68131125e-01 -2.94880526e-05 -2.06698261e+00
  7.68131125e-01 -2.94880526e-05 -2.06698261e+00  7.68131125e-01 -2.94880526e-05
 -2.06698261e+00  7.68131125e-01 -2.94880526e-05  5.00502326e-01  7.63659944e-01
 -5.78938295e-05  5.00502326e-01  7.63659944e-01 -5.78938295e-05  5.00502326e-01
  7.63659944e-01 -5.78938295e-05  5.00502326e-01  7.63659944e-01 -5.78938295e-05
  5.00502326e-01  7.63659944e-01 -5.78938295e-05  5.00502326e-01  7.63659944e-01
 -5.78938295e-05  5.00502326e-01  7.63659944e-01 -5.78938295e-05  5.00502326e-01
  7.63659944e-01 -5.78938295e-05  5.00502326e-01  7.63659944e-01 -5.78938295e-05
  5.00502326e-01  7.63659944e-01 -5.78938295e-05  5.00502326e-01  7.63659944e-01
 -5.78938295e-05  1.86943235e+00  3.10313499e+00  7.61795720e-05  1.86943235e+00
  3.10313499e+00  7.61795720e-05  1.86943235e+00  3.10313499e+00  7.61795720e-05
  1.86943235e+00  3.10313499e+00  7.61795720e-05  1.86943235e+00  3.10313499e+00
  7.61795720e-05  1.86943235e+00  3.10313499e+00  7.61795720e-05  1.86943235e+00
  3.10313499e+00  7.61795720e-05  1.86943235e+00  3.10313499e+00  7.61795720e-05
  1.86943235e+00  3.10313499e+00  7.61795720e-05  1.86943235e+00  3.10313499e+00
  7.61795720e-05  1.86943235e+00  3.10313499e+00  7.61795720e-05  2.98173387e+00
  4.99715520e+00  1.82398416e-04  2.98173387e+00  4.99715520e+00  1.82398416e-04
  2.98173387e+00  4.99715520e+00  1.82398416e-04  2.98173387e+00  4.99715520e+00
  1.82398416e-04  2.98173387e+00  4.99715520e+00  1.82398416e-04  2.98173387e+00
  4.99715520e+00  1.82398416e-04  2.98173387e+00  4.99715520e+00  1.82398416e-04
  2.98173387e+00  4.99715520e+00  1.82398416e-04  2.98173387e+00  4.99715520e+00
  1.82398416e-04  2.98173387e+00  4.99715520e+00  1.82398416e-04  2.98173387e+00
  4.99715520e+00  1.82398416e-04 -3.55566740e+00 -1.46541440e+00 -3.63596681e-05
 -3.55566740e+00 -1.46541440e+00 -3.63596681e-05 -3.55566740e+00 -1.46541440e+00
 -3.63596681e-05 -3.55566740e+00 -1.46541440e+00 -3.63596681e-05 -3.55566740e+00
 -1.46541440e+00 -3.63596681e-05 -3.55566740e+00 -1.46541440e+00 -3.63596681e-05
 -3.55566740e+00 -1.46541440e+00 -3.63596681e-05 -3.55566740e+00 -1.46541440e+00
 -3.63596681e-05 -3.55566740e+00 -1.46541440e+00 -3.63596681e-05 -3.55566740e+00
 -1.46541440e+00 -3.63596681e-05 -3.55566740e+00 -1.46541440e+00 -3.63596681e-05
 -4.83713882e+00 -3.25272674e+00 -4.26237804e-05 -4.83713882e+00 -3.25272674e+00
 -4.26237804e-05 -4.83713882e+00 -3.25272674e+00 -4.26237804e-05 -4.83713882e+00
 -3.25272674e+00 -4.26237804e-05 -4.83713882e+00 -3.25272674e+00 -4.26237804e-05
 -4.83713882e+00 -3.25272674e+00 -4.26237804e-05 -4.83713882e+00 -3.25272674e+00
 -4.26237804e-05 -4.83713882e+00 -3.25272674e+00 -4.26237804e-05 -4.83713882e+00
 -3.25272674e+00 -4.26237804e-05 -4.83713882e+00 -3.25272674e+00 -4.26237804e-05
 -4.83713882e+00 -3.25272674e+00 -4.26237804e-05  1.96484672e+00 -1.51610438e+00
 -5.52357057e-05  1.96484672e+00 -1.51610438e+00 -5.52357057e-05  1.96484672e+00
 -1.51610438e+00 -5.52357057e-05  1.96484672e+00 -1.51610438e+00 -5.52357057e-05
  1.96484672e+00 -1.51610438e+00 -5.52357057e-05  1.96484672e+00 -1.51610438e+00
 -5.52357057e-05  1.96484672e+00 -1.51610438e+00 -5.52357057e-05  1.96484672e+00
 -1.51610438e+00 -5.52357057e-05  1.96484672e+00 -1.51610438e+00 -5.52357057e-05
  1.96484672e+00 -1.51610438e+00 -5.52357057e-05  1.96484672e+00 -1.51610438e+00
 -5.52357057e-05  3.18005717e+00 -3.34547774e+00 -5.53964250e-05  3.18005717e+00
 -3.34547774e+00 -5.53964250e-05  3.18005717e+00 -3.34547774e+00 -5.53964250e-05
  3.18005717e+00 -3.34547774e+00 -5.53964250e-05  3.18005717e+00 -3.34547774e+00
 -5.53964250e-05  3.18005717e+00 -3.34547774e+00 -5.53964250e-05  3.18005717e+00
 -3.34547774e+00 -5.53964250e-05  3.18005717e+00 -3.34547774e+00 -5.53964250e-05
  3.18005717e+00 -3.34547774e+00 -5.53964250e-05  3.18005717e+00 -3.34547774e+00
 -5.53964250e-05  3.18005717e+00 -3.34547774e+00 -5.53964250e-05 -3.07075105e+00
  2.55870231e+00  5.16140035e-05 -3.07075105e+00  2.55870231e+00  5.16140035e-05
 -3.07075105e+00  2.55870231e+00  5.16140035e-05 -3.07075105e+00  2.55870231e+00
  5.16140035e-05
Total Energy                               R     -3.532919564634221e+02
Alpha Orbital Energies                     R   N=         222
 -1.56393986e+01 -1.56362201e+01 -1.56345084e+01 -1.13988459e+01 -1.13839235e+01
 -1.13364993e+01 -1.13344047e+01 -1.13330500e+01 -1.29011588e+00 -1.27340661e+00
 -1.26652973e+00 -1.19263369e+00 -1.02217151e+00 -8.72632694e-01 -8.01829021e-01
 -7.22221204e-01 -6.18324899e-01 -6.17971328e-01 -6.15417030e-01 -6.06737738e-01
 -5.43023123e-01 -5.31359147e-01 -5.22570781e-01 -5.22277959e-01 -5.10695068e-01
 -4.29658576e-01 -2.94312374e-02  3.72838883e-02  6.55616691e-02  7.00782765e-02
  7.96080625e-02  9.53349242e-02  1.01752950e-01  1.05890982e-01  1.16674346e-01
  1.19400229e-01  1.19643465e-01  1.25106691e-01  1.41827093e-01  1.49662948e-01
  1.50190109e-01  1.62827422e-01  1.71066746e-01  1.73320720e-01  1.87729533e-01
  1.90543971e-01  2.09029351e-01  2.09570192e-01  2.33735605e-01  2.43208723e-01
  2.56000436e-01  2.61557597e-01  2.65107909e-01  2.71775733e-01  2.85782403e-01
  3.01719630e-01  3.05365749e-01  3.12037788e-01  3.19651657e-01  3.21110811e-01
  3.27892179e-01  3.31007585e-01  3.43674458e-01  3.59255004e-01  3.61514189e-01
  3.65080242e-01  3.98558278e-01  4.12097725e-01  4.94709938e-01  5.37684474e-01
  6.14015850e-01  6.21070879e-01  6.44768546e-01  6.59427186e-01  6.61278179e-01
  6.71308608e-01  6.85083486e-01  6.95997121e-01  7.32158490e-01  7.37507972e-01
  7.43382320e-01  7.50036609e-01  7.65118084e-01  7.71363084e-01  7.85683836e-01
  8.01135600e-01  8.04613681e-01  8.22887494e-01  8.31521260e-01  8.41995044e-01
  8.69256165e-01  8.91053806e-01  9.07646891e-01  9.51041119e-01  9.57874422e-01
  9.77197388e-01  9.87210853e-01  1.00115969e+00  1.00291999e+00  1.01401698e+00
  1.01571795e+00  1.03832723e+00  1.04629969e+00  1.04991788e+00  1.06964406e+00
  1.08739020e+00  1.10204971e+00  1.11326034e+00  1.12400391e+00  1.19243344e+00
  1.22508626e+00  1.25993575e+00  1.27505812e+00  1.29084652e+00  1.30552926e+00
  1.35543780e+00  1.37045197e+00  1.40969701e+00  1.43836637e+00  1.44715380e+00
  1.47468036e+00  1.49291470e+00  1.52694481e+00  1.56585569e+00  1.58296534e+00
  1.59149231e+00  1.59835750e+00  1.65420904e+00  1.67202731e+00  1.68202472e+00
  1.72807981e+00  1.82529216e+00  1.92002065e+00  1.93643488e+00  2.01104893e+00
  2.01965426e+00  2.05147956e+00  2.15178785e+00  2.20184203e+00  2.22416340e+00
  2.26632324e+00  2.28948290e+00  2.29322657e+00  2.29806446e+00  2.47248908e+00
  2.51594898e+00  2.53037065e+00  2.66149470e+00  2.81979050e+00  3.01907537e+00
  3.11981428e+00  3.14885021e+00  3.18718872e+00  3.21471836e+00  3.25085423e+00
  3.30453326e+00  3.31164216e+00  3.35472397e+00  3.40638843e+00  3.41798249e+00
  3.44468082e+00  3.47323587e+00  3.53319332e+00  3.55622054e+00  3.56252808e+00
  3.57572786e+00  3.57979119e+00  3.58675255e+00  3.59818681e+00  3.61873624e+00
  3.64752343e+00  3.69884212e+00  3.72095775e+00  3.75743486e+00  3.81608294e+00
  3.82999797e+00  3.88047500e+00  3.90844648e+00  3.94061013e+00  3.96192941e+00
  4.00927437e+00  4.03461676e+00  4.08991761e+00  4.16710058e+00  4.17683164e+00
  4.21593351e+00  4.29611558e+00  4.45388542e+00  4.47572417e+00  4.49517716e+00
  4.54327748e+00  4.55479336e+00  4.59311203e+00  4.70816259e+00  4.77258314e+00
  4.92212841e+00  5.08578257e+00  5.13466722e+00  5.19596867e+00  5.20421658e+00
  5.20948444e+00  5.20954749e+00  5.21415160e+00  5.23563502e+00  5.36595891e+00
  5.49935502e+00  5.52551886e+00  5.54987491e+00  5.55812765e+00  5.59622959e+00
  5.61851390e+00  6.10341441e+00  6.13401806e+00  6.19431049e+00  2.48434974e+01
  2.52305374e+01  2.52927289e+01  2.52961958e+01  2.53400179e+01  3.71702578e+01
  3.72366966e+01  3.72519364e+01
Alpha MO coefficients                      R   N=       49284
  4.81279155e-07  3.28517818e-06  2.05301734e-05  2.76151040e-05 -4.44554982e-10
 -2.32047693e-04 -8.52965657e-05 -1.07947106e-04  2.12205305e-09  4.10193752e-03
 -7.88271784e-04 -1.60331240e-03 -9.93037289e-09  6.95169109e-06  2.34531203e-11
  3.35970110e-10  4.37547555e-07 -7.85452544e-06 -2.00051718e-04  2.15488934e-09
 -7.02744063e-10 -5.57592504e-05  3.67120309e-04 -8.89981042e-03  1.09479476e-03
  2.07661801e-03  2.60384109e-08  6.56127326e-07 -3.38784646e-06 -5.48495743e-06
 -1.91141512e-06  1.29449107e-11  8.86944696e-05  3.30918506e-05 -9.66793301e-06
 -1.84585842e-11 -1.37590958e-03 -1.38897705e-05  1.35277670e-04 -1.23360437e-08
 -7.75671227e-06 -4.50620565e-10  9.53054151e-10  1.57850820e-06 -7.69500436e-06
  9.01680443e-05  5.56788459e-09 -9.27511376e-09  2.89877952e-05  1.92906946e-04
  5.63927787e-03  1.59102179e-04  1.99966830e-03  8.96956697e-08 -1.85765913e-07
  1.01615443e-06  6.96284506e-06 -1.70037195e-07  4.11835198e-11 -1.75924212e-05
 -3.24779863e-05  1.19170778e-05  5.81406143e-10  4.76009058e-05 -2.57819996e-04
 -2.61094594e-04 -1.18401129e-08 -2.30328020e-07  4.14959518e-11  9.30739415e-12
  2.51536129e-06  1.14502740e-06  1.29071462e-07 -1.05965727e-10 -4.57852995e-09
  4.95140847e-05 -5.37377145e-06 -5.63900254e-03  1.10818932e-03  9.11200286e-04
  9.34950486e-08  2.09416975e-05  1.72625895e-05  4.27369674e-06 -7.16956871e-07
  1.80724378e-10  2.52782135e-06 -2.14136398e-05 -8.65669264e-07 -7.86885546e-10
  2.01108039e-04  1.89568796e-05 -5.83063715e-05  1.93996268e-10 -1.45352457e-06
  2.60566644e-10 -6.85186831e-12  1.45446159e-06  1.83418345e-06  5.25719380e-06
 -9.40025676e-10 -2.28694373e-10 -4.75259404e-06 -2.98216916e-06  3.46972656e-04
 -1.79648856e-04 -9.70670139e-05 -2.22853628e-08  9.82181174e-05 -1.21859789e-04
 -1.05472038e-04 -1.42266063e-04 -7.05542059e-10  1.20873321e-03 -8.04706667e-04
 -1.15064603e-03 -3.03484314e-09  1.01628841e-03 -2.48853029e-03 -3.55369289e-03
 -1.32360545e-08 -1.14982844e-04  7.16944116e-10  9.15397311e-10 -6.29619842e-05
  1.87377517e-04 -9.12051508e-05 -2.30261012e-10  6.35289108e-10  1.06921737e-05
  1.65218568e-04  8.52860391e-03  1.29510562e-03  1.77437319e-03 -1.63433203e-08
  5.57797495e-01  4.68392511e-01  1.25089068e-03  1.74796786e-03  7.98105773e-09
  4.33704523e-03 -6.64794224e-04 -9.47100695e-04 -4.13239251e-09 -4.83190313e-03
 -8.59147406e-04 -1.22684216e-03 -5.24202477e-09 -2.09496443e-04  9.83455298e-10
  1.20592671e-09 -1.14265384e-04  3.28208334e-04  2.02448831e-04 -1.37244725e-09
 -2.27871265e-09  1.31219609e-04 -3.44415513e-04 -1.39977430e-03 -4.13218203e-04
 -5.59701610e-04  5.59234542e-09  3.25939261e-07 -2.35912094e-06  7.21086803e-06
 -1.17477988e-05  2.06810468e-10  2.66124691e-05 -7.33373275e-05  1.23933219e-04
 -7.00003876e-10  1.82026569e-04 -2.94590341e-04  4.16409997e-04 -1.22517063e-09
 -1.94213999e-06 -2.44820089e-10  1.32805729e-10  1.43417394e-06  7.54243632e-07
  9.09841537e-06  4.60130644e-09 -6.34254955e-09 -3.09373088e-05  1.06530325e-05
  6.25777199e-04 -2.02731638e-04 -3.36167408e-05 -2.63356686e-08  2.03416219e-06
  2.15705075e-06  6.33931791e-07 -5.78634231e-06  2.31147119e-10 -1.88406382e-05
 -7.14119181e-06  3.51915035e-05 -1.01961249e-09  3.86897945e-04 -7.69789845e-05
  1.09682992e-04 -5.23856339e-09 -1.04902190e-07 -1.42231983e-10  1.89865732e-10
 -1.03635209e-06 -2.47209787e-06 -1.59806695e-05  1.34877522e-09 -2.03904135e-09
 -1.28136087e-05 -1.37404251e-05  1.51586407e-04  1.50669142e-05  6.25852242e-05
  9.37465713e-09  1.44652256e-05  2.45160008e-06  1.31587973e-04 -1.15956244e-05
 -6.22366768e-06 -1.26201933e-10  2.68016020e-07 -1.08985462e-06  2.70650577e-06
 -6.62443913e-08  1.31814708e-10  6.27738910e-05  2.02040042e-05 -4.79063757e-06
 -1.11405555e-09 -7.47792186e-04  5.88564895e-05  2.75539093e-04 -8.89898035e-10
 -4.29716462e-06  1.21035876e-10 -2.69263338e-10  4.50168876e-06  1.41244578e-07
  6.41367162e-05  2.47164808e-09 -8.05109967e-09  8.13015173e-05  1.32701869e-04
  6.51973194e-03 -1.47473346e-04 -1.09617493e-03 -1.26094234e-08  2.07483181e-07
  4.63237985e-06 -2.08473618e-05 -2.84104451e-05 -1.99001283e-09 -2.41605062e-04
  9.95314387e-05  1.08973898e-04  8.50314564e-09  3.96984518e-03  9.11405199e-04
  1.22987116e-03  8.51388738e-08  4.97361676e-06 -2.43963902e-10 -7.67553880e-10
  4.72700938e-06 -9.96784467e-06 -1.81896963e-04  1.31444098e-08  2.58703209e-08
 -1.99728900e-04  3.21786396e-04 -8.45692560e-03 -6.15654308e-04 -2.78581655e-03
 -1.47163070e-07  9.86533207e-05 -1.20601648e-04  8.92781964e-05  1.54118157e-04
  8.25823461e-09  1.21858601e-03  7.12993154e-04  1.20327313e-03  6.95530232e-08
  1.24072690e-03  2.06989192e-03  3.56928080e-03  1.99818995e-07 -1.14189269e-04
  9.37829199e-09  1.63067420e-08 -9.62866163e-05  1.71538240e-04 -8.89552510e-05
  6.81994730e-09  9.85038664e-09 -6.39731059e-05  1.21326047e-04  8.15328013e-03
 -1.23875986e-03 -1.61553406e-03 -1.24325155e-07  5.57792612e-01  4.68389046e-01
 -1.10001334e-03 -1.84424282e-03 -1.01470495e-07  4.36415874e-03  5.88223630e-04
  9.87021741e-04  5.51313589e-08 -4.77919786e-03  7.46439960e-04  1.29185134e-03
  7.15189926e-08 -1.99969044e-04  1.68652659e-08  3.02328783e-08 -1.73214348e-04
  3.07897105e-04  2.17641015e-04 -1.88976636e-08 -3.04037794e-08  1.78113437e-04
 -3.19651286e-04 -1.24814768e-03  3.48316151e-04  5.03626814e-04  4.08867891e-08
 -2.24536993e-07  1.34161128e-06 -7.13059392e-06  1.75390561e-06  3.06617463e-10
 -2.21974198e-05  3.08129607e-05 -1.30050753e-05 -1.14431469e-09  2.19281871e-04
  3.67646325e-04  3.71838328e-04 -3.98846850e-10  1.03851176e-06  2.96233157e-10
  1.97238664e-11 -1.17374243e-06  2.60294069e-06 -1.18351314e-05 -3.98407010e-09
 -2.48918038e-09  7.00033782e-05  4.28898818e-07 -5.31173051e-03 -1.04492113e-03
 -9.70097892e-04  2.15004681e-08 -2.09199145e-05 -1.74634678e-05 -4.48441935e-06
  1.20006804e-06  3.94422835e-10 -2.63927278e-06  2.17669618e-05 -3.64388987e-06
 -1.58507133e-09  2.40805182e-04  1.09822817e-05  4.64286851e-05  1.06776260e-09
 -1.87808698e-06 -1.19623890e-10  1.62813433e-10  5.18846768e-07  9.17465438e-07
  8.40204102e-06  1.60125834e-10 -1.26720285e-09  5.35610373e-06  3.46435784e-07
  4.53131380e-04  1.88156695e-04  1.70796941e-04 -7.81195104e-09  4.87999724e-07
 -1.03439557e-06 -4.02967146e-06  7.87025300e-06  2.65212239e-11  3.20657828e-05
  2.52210824e-05 -3.42400766e-05 -3.05805309e-10 -1.18960065e-06  2.28273095e-04
 -3.88435732e-04 -4.83336441e-09 -1.67429990e-06 -3.12496349e-10 -4.34162804e-10
 -5.03132875e-06 -9.01806221e-06  7.10180516e-06 -2.81798623e-09  5.43825163e-09
 -7.94086433e-05  5.34814249e-05 -5.40283216e-04  1.48531144e-04 -7.97086499e-06
  3.65034807e-08 -7.49413559e-05 -6.43948998e-05 -3.63521552e-06  7.65355430e-07
  1.39404117e-11  2.94661624e-05  1.80052328e-05 -3.98816294e-06  4.31605327e-11
 -3.30868932e-04  1.19435861e-04 -6.33502880e-05  7.45621092e-09  1.73686354e-06
  1.57022555e-10 -2.90633256e-10  3.55764815e-06 -2.53478456e-07  5.05816545e-06
 -1.41186552e-09  2.17887971e-09 -2.45031577e-05  2.58775928e-05 -2.47311671e-04
  8.69058806e-06 -7.15447341e-05 -1.21955331e-08  2.92485785e-06  1.91593184e-04
 -1.13273478e-04  1.63663706e-05 -3.16407930e-05 -1.45812623e-09 -5.83583984e-07
  2.39704480e-06 -2.97083656e-06 -4.27275947e-06 -1.12109375e-10 -7.73602276e-05
 -7.33019020e-06  4.78546279e-05  1.46424865e-09  8.53273957e-04 -4.42419037e-04
 -8.12081976e-04  1.48849149e-09  5.82480610e-06 -1.13981663e-10  1.37137796e-10
 -5.79943120e-06 -5.24595725e-06 -6.29889770e-05  3.60125637e-09 -1.98509588e-09
 -4.22159202e-05  1.71342022e-04  6.25112048e-04  1.27708046e-03  1.11531767e-03
 -3.46279505e-08 -4.16753057e-07 -3.61645953e-06  2.43857152e-05 -2.56892642e-05
  1.81058629e-10  2.26482445e-04 -1.07918598e-04  9.70730251e-05 -1.44301639e-09
 -3.78398800e-03 -1.13400375e-03  1.92433799e-03 -3.49155860e-10 -5.37124429e-06
 -4.63768634e-10 -4.55095977e-10 -6.00577887e-06 -8.87779496e-06  1.83674417e-04
  5.69249275e-09  5.64638778e-11  1.83890050e-04  3.56321993e-04  3.17743991e-03
  1.92553825e-03 -3.40194446e-03 -1.69584695e-08 -5.49959112e-07  1.23886759e-06
  4.06319471e-06  6.73797833e-06  3.85419621e-10 -3.08210814e-05 -2.30992651e-05
 -3.04026015e-05 -1.68547269e-09 -3.70039467e-04 -2.94059289e-05 -2.15532143e-04
 -2.66953277e-09  6.08907040e-07  2.21519542e-10 -5.61945319e-10  5.99662349e-06
 -7.04969526e-06  6.53238243e-08  4.16257266e-09 -9.99647610e-11  8.71286670e-05
  4.58439608e-05  1.92890626e-03 -4.17171209e-04 -2.21018258e-04 -4.64217153e-08
 -7.50605720e-05 -6.20106948e-05  3.83587572e-06  1.97905035e-06  4.66046874e-11
 -2.34225438e-05 -1.83874978e-05 -8.98323853e-06 -2.84327697e-10  2.94844612e-04
 -1.33225942e-04 -5.96706294e-05 -1.12403307e-08 -1.58306610e-06 -2.91323627e-10
  4.97259694e-11 -3.95912090e-06 -1.64821675e-06 -5.08430948e-06  3.29416582e-09
  1.34219208e-09  2.46786290e-05  3.26967424e-05  7.19091197e-05  3.67604543e-05
 -1.81752533e-05  7.59327135e-09 -6.02837864e-08  4.16149312e-07  6.55079805e-06
  9.54141361e-06  2.11524862e-10 -1.22820724e-05 -6.38573189e-05 -1.00901958e-04
 -9.05047642e-10 -6.17073295e-04 -5.12492453e-04 -7.31432845e-04 -2.07504550e-09
  2.57979651e-06  1.30936869e-10  1.59423464e-11 -1.01165083e-06  8.71669756e-07
 -1.19481017e-05 -1.39006233e-09 -6.22537349e-10  2.36180012e-05  7.47175099e-06
  2.30410391e-03  7.19016487e-05  5.07605814e-04  2.33738982e-08  1.93851774e-06
  2.91751553e-07  4.97097341e-07  5.04968185e-06  1.75872268e-10  2.50543470e-05
 -5.98429682e-06 -3.04779164e-05 -8.65802785e-10 -5.02668009e-04 -9.42771628e-05
 -1.06136411e-04  3.74132772e-10  6.12165708e-07 -1.70776268e-11  6.66484705e-11
  1.57106051e-06 -3.21696113e-06  1.07658049e-05 -9.84650433e-11 -5.72402806e-10
  5.41303367e-06 -7.09477493e-06 -2.88826748e-04 -1.51063236e-06 -1.23263113e-04
 -7.54157641e-09 -9.88119143e-05  1.21667784e-04 -9.81319790e-05  1.47725690e-04
  1.67117793e-10 -1.23087764e-03 -7.78906606e-04  1.17193250e-03 -9.67866265e-10
 -7.40127097e-04 -2.46084001e-03  3.71688523e-03 -4.99734882e-09  1.15051162e-04
  3.33587136e-12 -3.96859623e-11  7.70087735e-05  1.82380566e-04  7.95566244e-05
  8.20707455e-10 -2.78257106e-09  3.88190186e-05  1.13555047e-04 -8.42153267e-03
  1.15546225e-03 -1.76441505e-03  1.18556300e-08 -5.57795125e-01 -4.68390805e-01
  1.19628301e-03 -1.79133742e-03 -2.14364378e-09 -4.35708357e-03 -6.39491174e-04