[Molden Format]

[FREQ]
        -182.9582221817
         204.6569065378
         507.4670353269
         830.2901980130
         885.0580740610
         990.5717769412
        1143.7268696220
        1238.1426208916
        1394.2268586552
        1476.2500345841
        1550.3113181329
        1574.5220864041
        1766.7231739208
        1787.5157963509
        3616.1648876642
        3620.1071058979
        3737.8806925716
        3745.4951090686

[FR-COORD]
C         -1.5050575454        1.0338474022       -1.8610769439
H         -0.8341453141        1.9980891164       -3.5531859572
H         -3.5648684536        1.0328721322       -1.8795388914
C         -0.5208943177       -1.7500965655       -1.8610555568
H         -2.1237811620       -3.0437281891       -1.8808576357
H          0.6081650725       -2.0783342434       -3.5524014607
CL        -0.5598648024        2.9645072318        0.7945663314
CL         1.4255590434       -2.6584504625        0.7958947894

[FR-NORM-COORD]
vibration 1
           0.1443207765        0.0510399099       -0.0884753211
           0.4821218863       -0.0232121914        0.0041281708
           0.1461204564        0.2454263301       -0.3891708807
          -0.1444016070       -0.0510566322        0.0883370692
          -0.2681054829        0.0988953905        0.3890090291
          -0.3603913685       -0.3211459920       -0.0044123091
          -0.0424615734       -0.0150374341        0.0260443505
           0.0424966465        0.0150442234       -0.0259840540
vibration 2
          -0.0924416741       -0.0506427745       -0.1796505507
          -0.0764425398        0.0676103977       -0.1058085680
          -0.0931632011        0.0609083973       -0.0949927671
          -0.1032789735       -0.0185575202       -0.1799256699
          -0.0332991007       -0.1064085998       -0.0958271173
          -0.0162064919       -0.0995910870       -0.1059646817
           0.2493483536       -0.5889361983        0.0676018590
          -0.1758694299        0.6149161962        0.0673942224
vibration 3
          -0.2131783972        0.3117413032       -0.1682140198
          -0.1921517403        0.2771436965       -0.1838199164
          -0.2166200165        0.2690662255       -0.1695606813
          -0.0300427623        0.3764888232        0.1681741874
          -0.0001711966        0.3449969883        0.1687802138
          -0.0241520787        0.3371489619        0.1839723074
          -0.0052152957       -0.1545939793       -0.0977122950
           0.1011617644       -0.1169828265        0.0977440656
vibration 4
           0.2279737392       -0.0687016275        0.3324800990
           0.2017079820       -0.2024102910        0.2680608021
           0.2470847853       -0.1856506291        0.2397114409
           0.1339539631        0.1966523777        0.3325497656
           0.0750525168        0.3000662408        0.2400332890
           0.0293845172        0.2836162687        0.2680656578
          -0.0484971837       -0.0859679876       -0.1287183173
          -0.0916472847        0.0364221431       -0.1287730814
vibration 5
          -0.0661376853       -0.0234519548        0.0403586056
           0.4396034971       -0.1551148459        0.1710500840
          -0.0666200850        0.2867730735       -0.3999892235
          -0.0660254940       -0.0234208238        0.0405505743
           0.1288888803       -0.2649874621       -0.3996872325
           0.2445391227        0.3967669834        0.1715389706
           0.0119508725        0.0042612596       -0.0072389049
           0.0118905171        0.0042312748       -0.0073525385
vibration 6
           0.1341928686        0.1014059364        0.2777824729
           0.0898197854        0.2405252018        0.3548023226
           0.1463348865        0.2612932562        0.3183981780
          -0.1681890478       -0.0055196211       -0.2777560780
          -0.2775468418        0.1105695661       -0.3201405338
          -0.2197398491        0.1318530102       -0.3541543746
          -0.0395108363       -0.0445361804       -0.0902063631
           0.0587030455       -0.0098179200        0.0902288469
vibration 7
           0.1151577982        0.0406625211       -0.0705438075
          -0.3419469984       -0.0914604744       -0.3385369240
           0.1197063375        0.0127596083        0.4747773601
          -0.1151940630       -0.0406666267        0.0704841888
          -0.1008263010       -0.0651120278       -0.4748481595
           0.3231847176        0.1438453990        0.3387940758
          -0.0141844475       -0.0050114405        0.0086938309
           0.0141934985        0.0050119126       -0.0086787428
vibration 8
          -0.0532769573        0.2683134263        0.0677850066
          -0.0646559020        0.4302144785        0.1428549737
          -0.0644478527        0.4298823124        0.1428717297
           0.1270914408       -0.2422174874        0.0678634739
           0.2200379824       -0.3751140265        0.1426793294
           0.2201578986       -0.3750330292        0.1430736185
          -0.0125102585       -0.0192192191       -0.0315002152
          -0.0217859835        0.0070952479       -0.0315196752
vibration 9
          -0.0214950698       -0.0076213343        0.0131415704
           0.0076053322        0.4190771668        0.2717291564
          -0.0220263693       -0.4243211838       -0.2629791161
          -0.0215128218       -0.0075493004        0.0131641994
          -0.2834656975        0.3161649049       -0.2630380880
           0.2691672123       -0.3213652411        0.2720135781
           0.0077926004        0.0027554307       -0.0047682740
           0.0077938118        0.0027515757       -0.0047697418
vibration 10
          -0.0542145271       -0.0189893632        0.0332340322
           0.1135984048       -0.4611878532       -0.1505846097
          -0.0565515441        0.4805397056        0.1147681150
           0.0542502176        0.0190268382       -0.0331527514
          -0.2584423383        0.4098664920       -0.1156480851
           0.2006632334       -0.4297054654        0.1499971025
          -0.0044506872       -0.0015817970        0.0027361349
           0.0044595433        0.0015829762       -0.0027217337
vibration 11
          -0.0151635548        0.1155803126        0.0417324896
          -0.0789598710       -0.3948123198       -0.2821220476
          -0.0180245304       -0.3747202519       -0.3197680783
           0.0606418606       -0.0994901559        0.0418424026
          -0.2485593086        0.2790734274       -0.3195402360
          -0.3098389210        0.2586297939       -0.2826841361
           0.0033690594       -0.0042882793        0.0030078688
          -0.0000869571        0.0054482127        0.0030157210
vibration 12
          -0.0153129342       -0.0874890569       -0.0754560202
           0.0182137345        0.4330363885        0.2352341891
          -0.0179005050        0.4202118491        0.2574026673
           0.0668709089       -0.0584520223        0.0754847507
          -0.2500956772        0.3383707057       -0.2575901937
          -0.2860970878        0.3252860604       -0.2353834290
          -0.0017341985        0.0029655750       -0.0011184131
          -0.0005141706        0.0033977483        0.0011182597
vibration 13
          -0.0320194973        0.0311385105       -0.0342869730
           0.4792493592       -0.0839810645        0.1083242863
          -0.0314480849       -0.2644858205        0.4213385884
           0.0053086046        0.0443257629        0.0342922394
           0.1909453823       -0.1859026703       -0.4211463519
          -0.3198918278       -0.3663514480       -0.1085963473
          -0.0006994240       -0.0002117023       -0.0012628651
           0.0006759984        0.0002745552        0.0012633585
vibration 14
          -0.0381213595        0.0409103490       -0.0386031006
           0.4783331620       -0.1038569975        0.0897192990
          -0.0369734727       -0.2859984917        0.4055499586
          -0.0039157912       -0.0557816031       -0.0386243090
          -0.2088373580        0.1992375011        0.4055360275
           0.3068249814        0.3814120217        0.0900268223
          -0.0004252960       -0.0005777129       -0.0010270150
          -0.0006934687        0.0001821622       -0.0010278561
vibration 15
          -0.0290397197        0.0191154684       -0.0363334333
          -0.1674100402       -0.2346312945        0.4066223836
           0.4985852930        0.0007125910       -0.0014626094
           0.0105430825        0.0331413381        0.0363883918
          -0.3885418732       -0.3129553150        0.0011351261
           0.2783029675       -0.0773495544       -0.4069209924
           0.0002457686        0.0001193247        0.0004694801
          -0.0002659446       -0.0000613742       -0.0004702955
vibration 16
          -0.0298481387        0.0227464559       -0.0355508594
          -0.1697067148       -0.2327972120        0.4071843770
           0.4989763428        0.0035009682       -0.0025228937
          -0.0088653958       -0.0364068230       -0.0355434218
           0.3898392234        0.3104415301       -0.0021970191
          -0.2784385553        0.0743340434        0.4067708898
           0.0002177919        0.0003151976        0.0005372108
           0.0003668386       -0.0001084866        0.0005369945
vibration 17
          -0.0570443165       -0.0201696035        0.0349744711
           0.1676655364        0.2336488595       -0.4059592315
           0.4972703373        0.0014690702       -0.0017197898
           0.0571147080        0.0201877585       -0.0349385593
          -0.3881440279       -0.3116766320        0.0013893705
          -0.2776197610        0.0763461049        0.4058752309
           0.0001357930        0.0000478152       -0.0000834440
          -0.0001360877       -0.0000479181        0.0000830643
vibration 18
          -0.0561110407       -0.0198391513        0.0343994013
           0.1656592838        0.2348431952       -0.4065582424
           0.4977108186       -0.0003022644       -0.0001207459
          -0.0561055401       -0.0198303136        0.0343226445
           0.3868345814        0.3128909744        0.0002045826
           0.2764703769       -0.0784478175       -0.4059847868
           0.0001365071        0.0000483321       -0.0000836672
           0.0001363824        0.0000483161       -0.0000835628
