[Molden Format]

[FREQ]
        -305.8033628048
         105.7468216569
         130.6540709424
         172.6651846050
         176.8240123636
         188.0350131276
         275.1162590548
         334.9157498261
         392.7765319682
         898.5145369725
         910.1642102216
         955.9682943458
         994.6629284336
        1084.4111656722
        1138.2137650113
        1192.6139527692
        1366.4419625182
        1420.0687321662
        1443.7070499015
        1497.4229857460
        1498.2200228118
        1514.6763330725
        1519.6847420282
        3062.2965065219
        3066.0159576285
        3125.5121654798
        3130.0302698388
        3153.0278873476
        3155.9757131241
        3376.1411057146

[FR-COORD]
C          0.1725601507        0.7149733564       -2.4687585222
H         -0.6376030674        0.7136143717       -4.3253156878
C          2.8319676155        1.6289790823       -2.0546349323
C         -1.3296581607       -0.2010802226       -0.2381087767
CL         1.4056035987       -3.6055671074       -4.0426206367
CL        -1.8171036543        5.0347192718       -2.6387208143
H          3.7141401346        2.1842514186       -3.8364126692
H          3.9572150931        0.1167833593       -1.2027944212
H          2.8086652712        3.2623838654       -0.7859705828
H         -3.2303030262       -0.7725655349       -0.8033982495
H         -1.4816884825        1.3138428634        1.1615269005
H         -0.3737940478       -1.8244496481        0.6150510094

[FR-NORM-COORD]
vibration 1
          -0.1920382266        0.5109790971        0.0835198936
           0.0742358752       -0.2172662310       -0.0321650629
          -0.0509464486        0.1322985855        0.0206678043
          -0.0499403925        0.1323792873        0.0229297861
           0.0350247180       -0.1315062651       -0.0557705103
           0.0648116179       -0.1319452012        0.0124565069
          -0.0819849944        0.1951600645        0.0251455718
          -0.2095342495       -0.1229403188       -0.2314877565
           0.2654158674       -0.0102297287        0.2155615679
          -0.0757552384        0.1996041513        0.0412015130
           0.0307857703       -0.1244706189        0.3149205925
           0.0205897922       -0.0144056012       -0.3438616188
vibration 2
          -0.0004208848       -0.0028427763       -0.0048418441
          -0.0012087359       -0.0001149781       -0.0048015180
           0.0258454201       -0.0735733570       -0.0173830477
          -0.0304807080        0.0745506705        0.0066216112
           0.0268518602        0.0065283392       -0.0075505088
          -0.0245862382       -0.0061536699        0.0139725455
           0.1586562006       -0.4461846783       -0.0676531821
          -0.0987088461        0.0184412721        0.3113578856
           0.0377669958        0.1496892401       -0.3050930567
          -0.1722593118        0.4796523939        0.0741522621
           0.3249774863       -0.0216807983        0.1500383325
          -0.2676318766       -0.1705907358       -0.1950427576
vibration 3
          -0.0968282722        0.0017440556       -0.2216982219
          -0.0998312511        0.0006339984       -0.2304806042
          -0.0945431498        0.0202340772       -0.2730903797
          -0.1350276533       -0.0209196097       -0.2559884171
           0.1181973611       -0.1446948684        0.1346018702
           0.0178996479        0.1444828891        0.1786304029
          -0.1545289147        0.0490012262       -0.2948304499
          -0.0559619187        0.0203313123       -0.3293666435
          -0.0734651083        0.0080706768       -0.2605416346
          -0.1033753768       -0.0676008324       -0.3183493679
          -0.2188856550       -0.0176983653       -0.2719138075
          -0.1297787549        0.0020134499       -0.2234723487
vibration 4
           0.2317116872        0.1188409662       -0.1030672107
           0.3719331562        0.1670709639       -0.1641968288
           0.2243488234        0.0671300928        0.0930581277
           0.0808792185        0.0665570190       -0.2316314056
          -0.1114802301       -0.0450754906        0.0475088667
          -0.1057433462       -0.0553369206        0.0504214620
           0.3953966726        0.0271208366        0.1633549073
           0.1153730382        0.0506398026        0.2108163773
           0.1545141105        0.0788273746        0.0787551407
           0.1457146284        0.0304226738       -0.4073007240
          -0.0785509753        0.0477567697       -0.2306131119
           0.0394513369        0.0753970712       -0.1715662448
vibration 5
          -0.0917549582       -0.0034566381       -0.1790079384
          -0.0958194216       -0.0073261174       -0.1722038655
          -0.0599845241        0.0072571709       -0.2325252714
          -0.1362066623       -0.0158818406       -0.1812184570
          -0.0787007555        0.3799047968        0.1847636413
           0.1988822359       -0.3747052083        0.0638727694
          -0.1191626943       -0.0355443058       -0.2781590090
          -0.0234317107        0.0292325326       -0.2494091067
          -0.0075068237        0.0415133401       -0.2812063528
          -0.1249618376       -0.0002824623       -0.2448072228
          -0.1853162721       -0.0304149293       -0.1753843412
          -0.1852540947       -0.0337399101       -0.1680608372
vibration 6
           0.0343755347       -0.0585237163       -0.0166884928
           0.0199002260       -0.0026445640       -0.0104044161
           0.0027339754        0.0229753206        0.0064572929
          -0.0006625026        0.0149439418       -0.0101592408
          -0.0035919756       -0.0000193426        0.0121711442
          -0.0078348069       -0.0003567823       -0.0053568636
          -0.1386427709        0.4419398629        0.0668520401
           0.1484407465       -0.0703049960       -0.3523970439
          -0.0314359954       -0.2257255715        0.3266905768
          -0.1355388139        0.4069775977        0.0475864081
           0.3398293315       -0.0708170975        0.1201887649
          -0.2400419876       -0.2210409923       -0.1921682911
vibration 7
          -0.0006864909        0.0013668682        0.0010399224
          -0.0004166075        0.0008235829        0.0009663875
          -0.0666749062        0.1820883772        0.0282261119
           0.0669867803       -0.1853429537       -0.0297110464
          -0.0402936252       -0.0162726874        0.0180919397
           0.0403622876        0.0173486367       -0.0177021856
           0.0095583382       -0.0237122156        0.0017676726
          -0.0340937906        0.3630538953        0.3153354256
          -0.2316084696        0.3601629861       -0.2103841023
          -0.0020601889        0.0094061604        0.0054745460
           0.2468988738       -0.3649734547        0.1898679677
           0.0137999391       -0.3596169166       -0.3112526479
vibration 8
           0.0522064952       -0.1456293817       -0.0229803542
           0.0397772714       -0.1128047881       -0.0175955287
          -0.0669144070        0.1769523035        0.0282346637
          -0.0654089894        0.1736097024        0.0291046617
           0.0016835515       -0.0573008156       -0.0551924196
           0.0424677688       -0.0572817437        0.0361814674
          -0.0573764525        0.1691920604        0.0304263664
           0.0977729634        0.3922448753        0.2045024985
          -0.3521808312        0.2686178038       -0.1030759573
          -0.0626544252        0.1702735594        0.0233839037
          -0.0783215808        0.3856112122       -0.2087570486
          -0.1650123130        0.2624782012        0.3216389439
vibration 9
           0.0849306051       -0.0002334626        0.1947808831
           0.0854752868       -0.0000828710        0.1964657265
           0.1344966755        0.0650509225       -0.1017364105
          -0.1661770898       -0.0650662883        0.0299060836
          -0.0032806133       -0.0043953434       -0.0129010187
          -0.0071120940        0.0044805268       -0.0113613924
          -0.1692010292       -0.0144591011       -0.2781774214
           0.3173847969        0.1421924099       -0.2057059701
           0.3011415937        0.1443615312       -0.2001768276
          -0.0904928386        0.0182353187       -0.3128146490
          -0.3630426387       -0.1427877877        0.0930278244
          -0.3547067222       -0.1474523812        0.0852713506
vibration 10
          -0.0875525124       -0.0011693234       -0.1975603390
          -0.0861413029       -0.0180761512       -0.2159644807
           0.2157396263        0.0854399351       -0.0157522919
          -0.1586350473       -0.0844759061        0.1450993639
           0.0008151472       -0.0031703811       -0.0012883420
          -0.0017645049        0.0038649531       -0.0000855681
           0.5559394759        0.1683460317        0.1707543283
           0.0497811088        0.0111506025        0.0776698722
           0.0959026664        0.0069288268        0.0861333212
          -0.2535441593       -0.1741102613        0.5304497095
           0.0272341666       -0.0125748085        0.0909065365
           0.0063065652       -0.0033196402        0.1199254296
vibration 11
          -0.0084784464        0.0210872946        0.0019021446
          -0.3315616824        0.9167074216        0.1421658046
           0.0045056834       -0.0084502417       -0.0005324865
           0.0011836167       -0.0101814030       -0.0007271639
           0.0069493216       -0.0167597028       -0.0012479484
           0.0056253376       -0.0167488623       -0.0042355889
          -0.0204218750        0.0543850501        0.0065238555
           0.0523283412        0.0455930580        0.0222165016
          -0.0669628163        0.0088137906       -0.0176222410
          -0.0235179695        0.0526549304        0.0190231834
           0.0205490070        0.0466448106       -0.0539590775
          -0.0335104043        0.0086201744        0.0642660897
vibration 12
           0.0546866049        0.0251641680       -0.0251623138
          -0.2093745337       -0.0757331691        0.0900425979
          -0.0308298545        0.0018849690       -0.0888265566
           0.0426192287        0.0018942357        0.0845715947
           0.0008486074        0.0000692607       -0.0003643627
           0.0008285529        0.0001075224       -0.0003760551
           0.4089514900        0.1224567151        0.1710169081
          -0.3227995755       -0.0950555625        0.1309611675
          -0.2820560823       -0.1617950245        0.1216947662
           0.1501997164        0.1205045240       -0.4114436147
          -0.3148794926       -0.0974728410        0.1494012683
          -0.2797526249       -0.1636623265        0.1242838980
vibration 13
           0.0006721119        0.0005352765        0.0019569643
           0.0004161036       -0.0038189340        0.0022649881
          -0.0363250968        0.0901059738        0.0150683681
           0.0366516291       -0.0908202214       -0.0160445323
          -0.0006573380       -0.0003582503        0.0002073766
           0.0005437073        0.0004708094       -0.0003304468
           0.0577009332       -0.2138278810       -0.0332325691
          -0.3680613193       -0.2471052758       -0.1307413408
           0.4626067581        0.0287128841        0.0929500691
          -0.0656540835        0.2153298403        0.0181735039
           0.1534255235        0.2483601994       -0.3614840262
          -0.2483819188       -0.0294253561        0.4046613657
vibration 14
           0.0388344242       -0.1171239327       -0.0167131893
          -0.0914760754        0.1894745137        0.0400063103
          -0.0344809762        0.1016205788        0.0166012907
          -0.0350863870        0.1010649367        0.0135588857
           0.0011669100       -0.0045208303       -0.0018221090
           0.0021060254       -0.0044983728        0.0003934957
           0.0778498192       -0.2327280029       -0.0322683805
          -0.3409895726       -0.2344966555       -0.1517729722
           0.4385646533        0.0176268410        0.1172910921
           0.0799183779       -0.2293038742       -0.0383240465
          -0.1196545263       -0.2326098502        0.3512283546
           0.2081569946        0.0162123188       -0.3967022411
vibration 15
           0.1707819073        0.0712192399       -0.0741173725
           0.7429696538        0.3227289890       -0.3239591761
          -0.1202702287       -0.0360735986       -0.0278654603
          -0.0625895799       -0.0369041757        0.1066271642
          -0.0003580991       -0.0002180773        0.0000889905
          -0.0003028693       -0.0002258438        0.0001974985
          -0.2066875765       -0.0712848911       -0.0797626940
          -0.1167382123       -0.0379670609       -0.0431910956
          -0.0898219490       -0.0342433340       -0.0350868062
          -0.0849735711       -0.0731537751        0.2125857659
          -0.0441686103       -0.0370569497        0.1133465253
          -0.0338363850       -0.0326815267        0.0908278173
vibration 16
           0.0695022431       -0.0002341114        0.1608870370
           0.0723957464       -0.0016504457        0.1772086275
          -0.0150637774        0.0156098632       -0.1280665560
          -0.0831346004       -0.0153147119       -0.0990885354
          -0.0007228653        0.0020532464        0.0005145224
           0.0008676482       -0.0020618454       -0.0001784969
           0.3941963913        0.1197006806        0.1192320091
          -0.3287160833       -0.0585099858        0.1660617128
          -0.2501042607       -0.2019706121        0.1546814209
          -0.1788034438       -0.1210196495        0.3679121596
           0.3443946073        0.0588972854       -0.1260516637
           0.2832934201        0.2041242999       -0.0816610857
vibration 17
          -0.1232827502       -0.0547026336        0.0539559700
           0.5007112898        0.2208754805       -0.2184521996
          -0.0268772895       -0.0016030636       -0.0540429273
           0.0210864882       -0.0016157564        0.0567096578
           0.0006578884        0.0003271275       -0.0002745869
           0.0006544533        0.0003244541       -0.0002992626
           0.3175717953        0.0965464285        0.1428077618
           0.1525356254        0.2200512390        0.1280811261
           0.2740841829       -0.0942923957        0.0874493214
           0.1111467114        0.0967039938       -0.3317232775
           0.0102558153        0.2213539048       -0.2014864959
           0.1250164723       -0.0941859768       -0.2609619761
vibration 18
          -0.0003866569       -0.0001428312       -0.0005761098
           0.0012312441        0.0001664757        0.0030246138
          -0.0872980080       -0.0291250880       -0.0273308458
           0.0392746543        0.0288147593       -0.0822526321
           0.0001652424       -0.0002877326        0.0000508917
          -0.0000800971        0.0002918829        0.0001588820
           0.2393756831        0.0743290564        0.1632344688
           0.2849253105        0.3214293343        0.1279551921
           0.4389173119       -0.0814689946        0.0663890390
          -0.0432384777       -0.0708582977        0.2852952465
          -0.0993274662       -0.3193244654        0.2945091670
          -0.2484282188        0.0809785863        0.3639650186
vibration 19
          -0.1299026367       -0.0563102476        0.0568385382
           0.4643781083        0.2032000365       -0.2025501402
           0.1076432521        0.0428060004       -0.0106943540
           0.0813609240        0.0426330844       -0.0723304933
           0.0004683347        0.0002104665       -0.0001967062
           0.0004728422        0.0002093297       -0.0002125181
          -0.1048514203       -0.0374591761       -0.1362609678
          -0.2838458136       -0.2483967926       -0.0275232687
          -0.3872695652        0.0010296142        0.0219325556
           0.0270775089       -0.0312873981        0.1705954561
          -0.1743796890       -0.2511072499        0.2283757110
          -0.2774773709        0.0026230765        0.2714255482
vibration 20
          -0.0010506868       -0.0001473606        0.0012694820
           0.0064676947        0.0027804128       -0.0018123151
           0.0137103706       -0.0385357022       -0.0030081896
          -0.0161400782        0.0381349063        0.0070938143
           0.0003436332        0.0001668659       -0.0001394649
          -0.0003346074       -0.0001570431        0.0001437806
          -0.1518683335        0.4635957426        0.0705397396
          -0.2402659453       -0.0903940721        0.2112558854
           0.2004788475        0.1686059276       -0.2485505261
           0.1691546065       -0.4673345894       -0.1017242220
           0.3652905957        0.0742171798       -0.0075542258
          -0.3081301772       -0.1452846189        0.0139335833
vibration 21
           0.0130761429        0.0045586189       -0.0056486626
          -0.0817473254       -0.0349328720        0.0357888005
           0.0254634709        0.0099502091       -0.0320233225
           0.0390129594        0.0146623046        0.0040730443
           0.0000105928       -0.0000072944        0.0000008532
          -0.0000318507       -0.0000226364        0.0000076170
          -0.2964894785       -0.0384566839       -0.1882689576
          -0.0916670094        0.1639952280        0.4069468647
           0.1042438198       -0.2479188236        0.3114400154
          -0.0444538527       -0.0916364331        0.3350277926
          -0.3214461988        0.1708475428       -0.2129242117
          -0.1911075656       -0.2681951155       -0.2882473648
vibration 22
           0.0050139331       -0.0212316131       -0.0013144016
           0.0142709038       -0.0092960744       -0.0052201024
           0.0129548342       -0.0332111959       -0.0029221153
           0.0122832026       -0.0315945165       -0.0072488264
          -0.0000559779       -0.0001456799       -0.0003355966
           0.0001978293       -0.0001598235        0.0002637802
          -0.1592089114        0.4665546050        0.0668591339
          -0.2632400228       -0.1008384684        0.2171178085
           0.2267130303        0.1670244238       -0.2419013268
          -0.1585538044        0.4501561523        0.0806424052
          -0.3410822729       -0.0937636008        0.0358087743
           0.3159741883        0.1551948135       -0.0140608423
vibration 23
          -0.0139415559       -0.0003721463       -0.0328134108
          -0.0168208083       -0.0002709561       -0.0383551256
           0.0354780592        0.0150181643       -0.0251944202
          -0.0422442034       -0.0167483640        0.0086965996
           0.0001415820       -0.0000932120        0.0002504970
           0.0000944891        0.0000874089        0.0002803490
          -0.3140387512       -0.0723266014       -0.2081467254
          -0.0832117196        0.1511926749        0.3862611922
           0.0750755774       -0.2462218737        0.3209765124
           0.0542657110        0.0898484560       -0.3690520389
           0.3277555747       -0.1522252338        0.2041110754
           0.1953464131        0.2552371588        0.2729265484
vibration 24
           0.0010661519        0.0004549504       -0.0002998888
          -0.0009036456       -0.0002030247       -0.0005661195
          -0.0372948028       -0.0107854777       -0.0178503322
          -0.0066603626       -0.0062398817        0.0232618459
           0.0000822581        0.0000375139       -0.0000038386
           0.0000951451        0.0000137576       -0.0000049036
           0.1563180453        0.1017955352       -0.3398338917
           0.2908572239       -0.4068349982        0.2221144305
          -0.0157602051        0.4291632738        0.3297633820
           0.2022978218        0.0595660549        0.0676756641
           0.0224005465       -0.2397881282       -0.2132322797
          -0.1506930740        0.2518233249       -0.1264810980
vibration 25
           0.0000327815        0.0001203313       -0.0006760447
           0.0013694343       -0.0000683636        0.0034662848
           0.0221787285        0.0065530002        0.0100550239
          -0.0122521816       -0.0110119864        0.0397616024
          -0.0000083934       -0.0000391689       -0.0001296744
          -0.0000501959        0.0000546412       -0.0001097209
          -0.0959216316       -0.0617480336        0.2033495297
          -0.1691430640        0.2358152331       -0.1289842044
           0.0086860558       -0.2498330977       -0.1920937712
           0.3555848822        0.1054348309        0.1150495392
           0.0382846256       -0.4061264034       -0.3621578856
          -0.2554114279        0.4276486072       -0.2154315994
vibration 26
           0.0000833039       -0.0003520999       -0.0001304856
           0.0006363529       -0.0006428395        0.0009204775
           0.0248676225       -0.0691785635       -0.0084915702
          -0.0180763171        0.0514831890        0.0089419919
          -0.0001597242       -0.0000602464        0.0000437320
           0.0001644446        0.0000599064       -0.0000420357
           0.0088685132       -0.0120385290       -0.0094686793
          -0.3043048095        0.4115890271       -0.2371806433
          -0.0071071971        0.4414513231        0.3504913321
          -0.0049915849        0.0106287785        0.0015186557
           0.0267632218       -0.3079136261       -0.2857624019
           0.1981169257       -0.3281741498        0.1756129779
vibration 27
           0.0008531711       -0.0024380111       -0.0003913991
           0.0016110453       -0.0044132919       -0.0004291885
           0.0184908679       -0.0516074668       -0.0061253835
           0.0239216926       -0.0688313317       -0.0120269324
          -0.0000452637        0.0000069715       -0.0001777640
           0.0000559450       -0.0000124738        0.0001711995
           0.0072018980       -0.0075146530       -0.0087884558
          -0.2286154716        0.3070308309       -0.1772858385
          -0.0039625792        0.3296182321        0.2613638821
           0.0088147862       -0.0122627571       -0.0010921816
          -0.0368105097        0.4111797770        0.3834750711
          -0.2637674333        0.4396258959       -0.2362186822
vibration 28
           0.0003997502       -0.0001313122        0.0012562136
          -0.0094091303        0.0007860721       -0.0260959163
           0.0182903283        0.0173073700       -0.0890584765
           0.0055415591        0.0011688013        0.0033286658
          -0.0000201121        0.0000375790        0.0000805614
           0.0000320087       -0.0000617971        0.0000651329
          -0.3750228927       -0.2379328344        0.7705803777
           0.1691840843       -0.2273482435        0.1095249649
          -0.0051264659        0.2623635843        0.1827024485
          -0.0608899765       -0.0182233166       -0.0185751789
           0.0013488532       -0.0126806587       -0.0103481092
          -0.0090192095        0.0154466084       -0.0070311403
vibration 29
           0.0007415896        0.0001006372        0.0013616988
          -0.0143653785       -0.0007231670       -0.0290072665
           0.0012720343        0.0013596467       -0.0062242579
          -0.0774017815       -0.0188009777       -0.0470217304
           0.0000246648        0.0000684785        0.0000763317
           0.0000770028       -0.0000478330        0.0000511311
          -0.0252111473       -0.0160033104        0.0517573353
           0.0152968303       -0.0192389995        0.0092153860
           0.0002451129        0.0209826586        0.0141028801
           0.8201445787        0.2454565903        0.2500205976
          -0.0366892779        0.2291190036        0.1993315428
           0.1346855628       -0.2538364495        0.1179342496
vibration 30
          -0.0350155580       -0.0000424133       -0.0802843186
           0.3980289392        0.0005801705        0.9122089233
           0.0020992810        0.0010484239       -0.0017632986
          -0.0027714172       -0.0010615275        0.0003327095
           0.0002043999       -0.0003366789        0.0001205649
          -0.0000502393        0.0003380009        0.0002327865
          -0.0131007400       -0.0073132491        0.0189140849
           0.0081408302       -0.0081234850        0.0048397548
           0.0012837495        0.0091683798        0.0065935228
           0.0230567635        0.0076032119        0.0033808383
          -0.0020107424        0.0080692824        0.0091074297
           0.0041794985       -0.0093691485        0.0056604975
