[Molden Format]

[FREQ]
        -328.0256706858
         194.9754328876
         195.1057209982
         211.0093341634
         924.5073378029
         925.0458804472
        1026.8578269752
        1424.7922618629
        1425.5086300193
        3231.3751250350
        3426.2954754934
        3427.3585952794

[FR-COORD]
C          0.4996232664        0.0329897021        0.0000000000
H         -0.5145628322       -0.0073377193       -1.7577109792
H          2.5280499771        0.1127441670        0.0000000000
H         -0.5145628322       -0.0073377193        1.7577109792
CL         0.6770478221       -4.4310796357        0.0000000000
CL         0.3226218079        4.4955742246        0.0000000000

[FR-NORM-COORD]
vibration 1
          -0.0387102119        0.9684479745        0.0000000000
          -0.0018605194        0.0371291065        0.0001415821
          -0.0021359943        0.0380365298       -0.0000000000
          -0.0018605194        0.0371291065       -0.0001415821
           0.0067289578       -0.1678308151        0.0000000000
           0.0067237400       -0.1677406506        0.0000000000
vibration 2
           0.0000000000        0.0000000000        0.4859866115
          -0.0004695747        0.0027449966        0.4968350887
           0.0000000000        0.0000000000        0.4981067368
           0.0004695747       -0.0027449966        0.4968350887
          -0.0000000000       -0.0000000000       -0.1048357030
          -0.0000000000       -0.0000000000       -0.1049306717
vibration 3
           0.4852150405        0.0194610070       -0.0000000000
           0.4976435306        0.0196181759       -0.0011885862
           0.4957221822        0.0200069445       -0.0000000000
           0.4976435306        0.0196181759        0.0011885862
          -0.1047374841       -0.0039189341        0.0000000000
          -0.1047419916       -0.0044667846        0.0000000000
vibration 4
          -0.0015152277        0.0001180018       -0.0000000000
           0.0017798017       -0.0004579346        0.0057693684
          -0.0081887041       -0.0002760059       -0.0000000000
           0.0017798017       -0.0004579346       -0.0057693684
          -0.0277281493        0.7064963521        0.0000000000
           0.0283815324       -0.7065024953        0.0000000000
vibration 5
          -0.0000000000        0.0000000000       -0.0005163080
          -0.0284751281        0.7064874403       -0.0004107564
          -0.0000000000        0.0000000000        0.0003233363
           0.0284751281       -0.7064874403       -0.0004107564
          -0.0000000000       -0.0000000000        0.0081145128
           0.0000000000        0.0000000000       -0.0079229774
vibration 6
          -0.0000803882        0.0000216228        0.0000000000
           0.0163067200       -0.4096558166       -0.0000484820
          -0.0320935618        0.8140477511        0.0000000000
           0.0163067200       -0.4096558166        0.0000484820
          -0.0080071477       -0.0002557026       -0.0000000000
           0.0080197507        0.0003999910        0.0000000000
vibration 7
           0.0010083898       -0.0262361133       -0.0000000000
          -0.0227512894        0.5751744392       -0.0000989918
          -0.0227957049        0.5790244096       -0.0000000000
          -0.0227512894        0.5751744392        0.0000989918
           0.0007862943       -0.0204076618        0.0000000000
           0.0008360650       -0.0204307479       -0.0000000000
vibration 8
          -0.0935548250       -0.0036932316        0.0000000000
           0.5855860147        0.0232047413       -0.3857487974
          -0.0819649894       -0.0034914257       -0.0000000000
           0.5855860147        0.0232047413        0.3857487974
           0.0003575814        0.0000157807       -0.0000000000
           0.0003552753        0.0000146718       -0.0000000000
vibration 9
          -0.0000000000       -0.0000000000       -0.0934599746
          -0.3853208554       -0.0160375750        0.1409119327
          -0.0000000000       -0.0000000000        0.8087607504
           0.3853208554        0.0160375750        0.1409119327
           0.0000000000        0.0000000000        0.0003097827
           0.0000000000       -0.0000000000        0.0003308222
vibration 10
          -0.0003395732        0.0000113761        0.0000000000
          -0.2878466223       -0.0114539777       -0.4988359633
           0.5795100942        0.0227913447       -0.0000000000
          -0.2878466223       -0.0114539777        0.4988359633
          -0.0000061420        0.0002342359       -0.0000000000
           0.0000126667       -0.0002347790        0.0000000000
vibration 11
          -0.1025098205       -0.0040484245       -0.0000000000
           0.1949932754        0.0077616133        0.3585924875
           0.8093944866        0.0318330185       -0.0000000000
           0.1949932754        0.0077616133       -0.3585924875
           0.0003052688        0.0000114249        0.0000000000
           0.0003053206        0.0000130050        0.0000000000
vibration 12
           0.0000000000        0.0000000000       -0.1026018876
           0.3566058141        0.0142798769        0.6060467445
          -0.0000000000       -0.0000000000       -0.0120042963
          -0.3566058141       -0.0142798769        0.6060467445
          -0.0000000000       -0.0000000000        0.0003120033
          -0.0000000000        0.0000000000        0.0003097706
