[Molden Format]

[FREQ]
         902.4022261017
         902.4022281919
         918.0010988207
         918.0011037942
        2233.8002429518
        3596.1350515034
        3719.3364540807

[FR-COORD]
C         -1.1220749330       -0.0000000000        0.0000000000
C          1.1220749330        0.0000000000        0.0000000000
H         -3.1079266741       -0.0000000000        0.0000000000
H          3.1079266741        0.0000000000        0.0000000000

[FR-NORM-COORD]
vibration 1
           0.0000000000       -0.0591785859        0.0000007554
           0.0000000000       -0.0591780494        0.0000007554
          -0.0000000000        0.7046272432       -0.0000089940
          -0.0000000000        0.7046249367       -0.0000089940
vibration 2
           0.0000000000       -0.0000007554       -0.0591785614
          -0.0000000000       -0.0000007554       -0.0591780739
           0.0000000000        0.0000089941        0.7046271380
           0.0000000000        0.0000089940        0.7046250419
vibration 3
          -0.0000000000       -0.1602115134        0.0000129373
          -0.0000000000        0.1602118007       -0.0000129373
           0.0000000000        0.6887161000       -0.0000556148
           0.0000000000       -0.6887195199        0.0000556149
vibration 4
           0.0000000000       -0.0000129373       -0.1602115265
          -0.0000000000        0.0000129373        0.1602117875
          -0.0000000000        0.0000556146        0.6887162560
          -0.0000000000       -0.0000556151       -0.6887193638
vibration 5
           0.3456415777       -0.0000000000        0.0000000000
          -0.3456415606        0.0000000000       -0.0000000000
           0.6168725802        0.0000000000       -0.0000000000
          -0.6168727836        0.0000000000        0.0000000000
vibration 6
          -0.0591783135        0.0000000000       -0.0000000000
          -0.0591783218       -0.0000000000        0.0000000000
           0.7046261882       -0.0000000000        0.0000000000
           0.7046259918        0.0000000000       -0.0000000000
vibration 7
          -0.1048174929       -0.0000000000        0.0000000000
           0.1048175069        0.0000000000       -0.0000000000
           0.6992947701        0.0000000000        0.0000000000
          -0.6992949363       -0.0000000000        0.0000000000
