[Molden Format]

[FREQ]
         786.8803326565
         786.8824656164
         909.0525211522
         949.5333658369
         949.5402299769
        1163.1466587236
        1163.1562878062
        1190.5550286437
        1242.1319064058
        1292.0459184830
        1301.0505621057
        1301.0549141584
        1566.0419808498
        1566.0431539373
        1638.1625429994
        3275.0084146766
        3275.0105958528
        3291.1737425722
        3358.7026485704
        3358.7040917683
        3381.6257844537

[FR-COORD]
C         -1.4174448490       -0.8184792534        0.0000000000
C          1.4175418590       -0.8182998648        0.0000000000
C         -0.0001037108        1.6367790602        0.0000000000
H         -2.3803360831       -1.3745127865       -1.7177378108
H         -2.3803360831       -1.3745127865        1.7177378108
H          2.3805201971       -1.3741738521       -1.7177399409
H          2.3805201971       -1.3741738521        1.7177399409
H         -0.0001442215        2.7486869843        1.7177350625
H         -0.0001442215        2.7486869843       -1.7177350625

[FR-NORM-COORD]
vibration 1
          -0.0000000000        0.0000000000        0.0099752301
           0.0000000000       -0.0000000000       -0.0303305952
          -0.0000000000       -0.0000000000        0.0203595649
          -0.1175234720        0.4135322045       -0.0585323508
           0.1175234720       -0.4135322047       -0.0585323508
           0.3192547652       -0.0856811207        0.1779733095
          -0.3192547647        0.0856811209        0.1779733093
           0.3314706788        0.2143642857       -0.1194659612
          -0.3314706789       -0.2143642857       -0.1194659612
vibration 2
           0.0000000001        0.0000000001       -0.0292668370
          -0.0000000000       -0.0000000001        0.0059945296
          -0.0000000001       -0.0000000000        0.0232704124
          -0.3378764067       -0.0310456166        0.1717258301
           0.3378764071        0.0310456167        0.1717258302
           0.1613476133        0.4057532724       -0.0351745192
          -0.1613476131       -0.4057532722       -0.0351745192
          -0.2900109882        0.2449762759       -0.1365400288
           0.2900109879       -0.2449762759       -0.1365400288
vibration 3
           0.0000000001       -0.0000000003        0.0333004038
          -0.0000000003        0.0000000001        0.0333037553
           0.0000000002        0.0000000003        0.0333020589
           0.3083754256        0.1780539728       -0.1982571680
          -0.3083754255       -0.1780539739       -0.1982571682
          -0.3084096098        0.1780355018       -0.1982662115
           0.3084096088       -0.1780355020       -0.1982662114
          -0.0000360109        0.3560932362       -0.1982597317
           0.0000360116       -0.3560932355       -0.1982597316
vibration 4
          -0.0685983990        0.2229126431        0.0000000002
           0.2576122014       -0.0623662457        0.0000000001
          -0.1525465256       -0.2022361715        0.0000000001
          -0.1854938342        0.4144739638        0.0044136495
          -0.1854938373        0.4144739630       -0.0044136512
           0.2715025635        0.0148394994       -0.0215663585
           0.2715025658        0.0148394980        0.0215663569
          -0.3031135374       -0.1811169619       -0.0171496824
          -0.3031135377       -0.1811169643        0.0171496810
vibration 5
           0.2507109242        0.0929089525       -0.0000000000
          -0.0345748206       -0.2333052050        0.0000000000
          -0.1744472486        0.1768606923        0.0000000000
           0.2490146408        0.0407783538        0.0223542098
           0.2490146408        0.0407783536       -0.0223542100
          -0.1506338073       -0.4162367119       -0.0073541860
          -0.1506338068       -0.4162367107        0.0073541861
          -0.3465718602        0.1583704386        0.0150027793
          -0.3465718607        0.1583704387       -0.0150027791
vibration 6
           0.0575248354       -0.0234236105        0.0000000001
          -0.0628323789       -0.1220536701       -0.0000000000
          -0.0880882428        0.0314915411       -0.0000000000
          -0.0862696202        0.1815621574        0.0157569924
          -0.0862696217        0.1815621587       -0.0157569926
           0.2824507686        0.4837334088       -0.0027305322
           0.2824507678        0.4837334074        0.0027305321
           0.3598426670        0.0133087701        0.0130255568
           0.3598426657        0.0133087704       -0.0130255567
vibration 7
           0.0525755128       -0.1197929977        0.0000000000
          -0.0460665007        0.0005762125       -0.0000000001
           0.1074794381        0.0258182631        0.0000000000
          -0.2708832528        0.4569583626       -0.0059449794
          -0.2708832533        0.4569583635        0.0059449795
           0.0313284405        0.0882019826        0.0166193634
           0.0313284397        0.0882019819       -0.0166193632
          -0.4390656604        0.0108797557        0.0106761614
          -0.4390656612        0.0108797555       -0.0106761614
vibration 8
          -0.0564649967        0.0977893909        0.0000000002
          -0.0564680452       -0.0978156155        0.0000000000
           0.1129339516        0.0000129022       -0.0000000002
           0.2001914414       -0.3466754327        0.0000021245
           0.2001914403       -0.3466754328       -0.0000021248
           0.2001698164        0.3467668769        0.0000021303
           0.2001698163        0.3467668759       -0.0000021304
          -0.4003666727       -0.0000121305        0.0000032395
          -0.4003666728       -0.0000121296       -0.0000032392
vibration 9
          -0.0000000002        0.0000000000       -0.0000026790
           0.0000000002        0.0000000001       -0.0000017241
          -0.0000000000        0.0000000001        0.0000042906
           0.2041486756       -0.3535500683        0.0000037567
          -0.2041486753        0.3535500670        0.0000037567
           0.2040971491        0.3535572014        0.0000020799
          -0.2040971497       -0.3535572036        0.0000020796
           0.4082490968        0.0000314650       -0.0000051669
          -0.4082490969       -0.0000314644       -0.0000051667
vibration 10
          -0.1803035893       -0.1041123386        0.0000000029
           0.1803189348       -0.1040948053       -0.0000000033
          -0.0000176854        0.2082067647        0.0000000003
          -0.3231349705       -0.1865913834        0.0758797516
          -0.3231349866       -0.1865913825       -0.0758797542
           0.3231638259       -0.1865480057        0.0758785835
           0.3231638090       -0.1865480031       -0.0758785801
          -0.0000149184        0.3731416456       -0.0758795987
          -0.0000148995        0.3731416442        0.0758795985
vibration 11
           0.0000000015        0.0000000007        0.1535482142
          -0.0000000013        0.0000000009       -0.0289496807
          -0.0000000001       -0.0000000015       -0.1245986378
           0.2556251562        0.3020954742       -0.0791125644
          -0.2556251521       -0.3020954712       -0.0791125637
           0.2553361853        0.3018750015        0.0149165088
          -0.2553361907       -0.3018750001        0.0149165097
          -0.2552551605       -0.3022272871        0.0641966768
           0.2552551609        0.3022272813        0.0641966755
vibration 12
          -0.0000000019       -0.0000000012       -0.0552224452
           0.0000000020       -0.0000000011        0.1605873939
          -0.0000000000        0.0000000022       -0.1053645011
          -0.3020261464        0.2551827092        0.0284502207
           0.3020261392       -0.2551827125        0.0284502192
          -0.3022669211        0.2554862773       -0.0827373277
           0.3022669277       -0.2554862809       -0.0827373289
           0.3019057520       -0.2555483134        0.0542844430
          -0.3019057519        0.2555483213        0.0542844446
vibration 13
          -0.0344057376       -0.0099909490       -0.0000000000
          -0.0613838616        0.0355591487        0.0000000001
          -0.0084467450        0.0361492621       -0.0000000000
           0.2043115979        0.1062544000       -0.1630464212
           0.2043115978        0.1062543998        0.1630464211
           0.4062140126       -0.2346370903        0.3324551172
           0.4062140132       -0.2346370905       -0.3324551174
           0.0100365359       -0.2390469317        0.1694125613
           0.0100365359       -0.2390469317       -0.1694125614
vibration 14
          -0.0511355024       -0.0350862774        0.0000000001
          -0.0055854493       -0.0081083980       -0.0000000000
          -0.0049982357       -0.0610428345       -0.0000000000
           0.3512076521        0.2094036911       -0.2897551316
           0.3512076517        0.2094036908        0.2897551314
           0.0103141006        0.0074984059        0.0036736022
           0.0103141005        0.0074984058       -0.0036736022
           0.0059181430        0.4036669896       -0.2860770144
           0.0059181432        0.4036669899        0.2860770144
vibration 15
          -0.0928809564       -0.0536339105        0.0000000001
           0.0928890924       -0.0536210829       -0.0000000001
          -0.0000054216        0.1072552367        0.0000000000
           0.2622005383        0.1514089682       -0.2631286976
           0.2622005379        0.1514089682        0.2631286975
          -0.2622302205        0.1513725129       -0.2631328170
          -0.2622302210        0.1513725129        0.2631328172
           0.0000135225       -0.3027829293        0.2631338124
           0.0000135226       -0.3027829294       -0.2631338125
vibration 16
          -0.0411273156       -0.0241775665       -0.0000000000
          -0.0350995805        0.0209469345       -0.0000000000
           0.0009650778       -0.0068293780       -0.0000000000
           0.2414604768        0.1395418265        0.4539511400
           0.2414604765        0.1395418263       -0.4539511395
           0.2068495611       -0.1195765124       -0.3889126092
           0.2068495613       -0.1195765124        0.3889126095
          -0.0002452493        0.0399260942        0.0649896669
          -0.0002452494        0.0399260942       -0.0649896668
vibration 17
          -0.0174730205       -0.0090506156       -0.0000000000
           0.0276576993       -0.0150750556       -0.0000000000
          -0.0001268480       -0.0511362088       -0.0000000001
           0.0996249041        0.0572668785        0.1870473040
           0.0996249041        0.0572668785       -0.1870473040
          -0.1595242122        0.0918599722        0.2996413354
          -0.1595242121        0.0918599722       -0.2996413354
           0.0000208740        0.2989383054        0.4865965919
           0.0000208740        0.2989383050       -0.4865965913
vibration 18
          -0.0368827467       -0.0212983088       -0.0000000001
           0.0368886300       -0.0212940511        0.0000000000
          -0.0000017449        0.0425994889        0.0000000000
           0.1837048530        0.1060822646        0.3474505522
           0.1837048523        0.1060822643       -0.3474505510
          -0.1837377021        0.1060619798        0.3474813032
          -0.1837377022        0.1060619798       -0.3474813034
           0.0000082116       -0.2121866864       -0.3475350661
           0.0000082116       -0.2121866864        0.3475350660
vibration 19
           0.0000000000        0.0000000000       -0.0825674371
          -0.0000000000        0.0000000000        0.0420098526
           0.0000000000       -0.0000000000        0.0405475383
           0.2684028290        0.1550459600        0.4835462272
          -0.2684028294       -0.1550459603        0.4835462280
           0.1346069220       -0.0822712644       -0.2460256391
          -0.1346069218        0.0822712643       -0.2460256387
           0.0040109653       -0.1522190929       -0.2374607786
          -0.0040109653        0.1522190934       -0.2374607795
vibration 20
           0.0000000000       -0.0000000000       -0.0008439392
           0.0000000000       -0.0000000000       -0.0710799405
          -0.0000000000       -0.0000000000        0.0719249855
           0.0050424420       -0.0023970896        0.0049420842
          -0.0050424420        0.0023970896        0.0049420842
          -0.2322704899        0.1313765085        0.4162717286
           0.2322704897       -0.1313765085        0.4162717283
          -0.0022471820       -0.2700149539       -0.4212203959
           0.0022471820        0.2700149541       -0.4212203963
vibration 21
           0.0000000000        0.0000000000       -0.0572000791
          -0.0000000000        0.0000000000       -0.0572080780
           0.0000000000       -0.0000000000       -0.0572067915
           0.1917681876        0.1107381498        0.3405368494
          -0.1917681880       -0.1107381501        0.3405368503
          -0.1918103315        0.1107222710        0.3405826014
           0.1918103316       -0.1107222711        0.3405826016
          -0.0000090393        0.2214707574        0.3405754447
           0.0000090393       -0.2214707575        0.3405754447
