[Molden Format]

[FREQ]
         338.5330515768
         877.4500878921
         877.4500887551
        1062.0825144829
        1313.0131192011
        1313.0131209615
        1501.9015169817
        1540.3087897684
        1596.3332458597
        1596.3332471079
        1599.8088397184
        1599.8088407302
        3169.4547435764
        3179.8853009030
        3230.3451958169
        3230.3452050844
        3255.8503930492
        3255.8504025347

[FR-COORD]
C         -0.4803765684       -0.6793371743       -1.1766571726
H          0.1771497481       -2.6361482901       -1.2326071661
H          0.1772145132        0.2505820326       -2.8992729824
H         -2.5444520220       -0.7116040051       -1.2326247960
C          0.4803765686        0.6793371733        1.1766571726
H          2.5444520231        0.7116032362        1.2326252434
H         -0.1771490170        2.6361485488        1.2326067148
H         -0.1772152469       -0.2505815102        2.8992729862

[FR-NORM-COORD]
vibration 1
           0.0000000043        0.0000000070        0.0000000117
          -0.3333365612       -0.1178438906        0.2041230511
           0.3333286590       -0.2357088749        0.0000021786
           0.0000079357        0.3535528024       -0.2041251621
          -0.0000000051       -0.0000000065       -0.0000000116
           0.0000081067        0.3535527422       -0.2041252659
          -0.3333366756       -0.1178437481        0.2041229471
           0.3333285445       -0.2357090362        0.0000022507
vibration 2
          -0.0361556853        0.0301343171       -0.0026371465
           0.2953434052        0.1266755821        0.3746961120
           0.1539155463       -0.1588572752       -0.0316118579
          -0.0187594548       -0.3266225164       -0.3116841425
          -0.0361556746        0.0301343289       -0.0026371583
          -0.0187595071       -0.3266225382       -0.3116842129
           0.2953434080        0.1266755433        0.3746960571
           0.1539155760       -0.1588572383       -0.0316117120
vibration 3
           0.0258477212        0.0286419324       -0.0270887470
          -0.0616671716       -0.0116831531        0.2902428003
          -0.2595026322       -0.3303282915       -0.3247591210
           0.0134053413        0.0009769278        0.3570573859
           0.0258477359        0.0286419195       -0.0270887459
           0.0134052665        0.0009768666        0.3570573027
          -0.0616671378       -0.0116830521        0.2902428919
          -0.2595026176       -0.3303283079       -0.3247591334
vibration 4
           0.1006767115        0.1423746231        0.2466023139
           0.1312729357        0.1590149512        0.3061731325
           0.1312734198        0.1856435979        0.2907990026
           0.1061674757        0.1767678240        0.3061730362
          -0.1006767115       -0.1423746234       -0.2466023139
          -0.1061674758       -0.1767679456       -0.3061729638
          -0.1312728194       -0.1590149106       -0.3061732053
          -0.1312735362       -0.1856435135       -0.2907990012
vibration 5
           0.1119862384       -0.0909385887        0.0067839639
          -0.2650666113       -0.2016824098       -0.3281581061
          -0.1945487759        0.1709462346        0.0304885871
           0.0926400552        0.3287390019        0.2754387064
          -0.1119862349        0.0909385930       -0.0067839678
          -0.0926401474       -0.3287389659       -0.2754387723
           0.2650666788        0.2016823599        0.3281580445
           0.1945487591       -0.1709462725       -0.0304884140
vibration 6
          -0.0774490161       -0.0891750284        0.0831037363
           0.1079477592       -0.0129540950       -0.2983026160
           0.2099105568        0.2604397445        0.3735453418
          -0.0640603858        0.0447380901       -0.3475709982
           0.0774490213        0.0891750242       -0.0831037357
           0.0640602511       -0.0447381533        0.3475709740
          -0.1079477506        0.0129542563        0.2983026489
          -0.2099104929       -0.2604397930       -0.3735453579
vibration 7
          -0.0310252673       -0.0438751987       -0.0759947633
           0.2010493171        0.0364016160        0.3493324669
           0.2010548799        0.2843244284        0.2061931968
          -0.0326916586        0.2016884209        0.3493309536
          -0.0310252640       -0.0438751936       -0.0759947557
          -0.0326916551        0.2016884690        0.3493308878
           0.2010492356        0.0364015928        0.3493324785
           0.2010549265        0.2843243607        0.2061931797
vibration 8
          -0.0379245509       -0.0536320021       -0.0928941968
           0.2045147703        0.0216768038        0.3464907042
           0.2045207648        0.2892256107        0.1920202976
          -0.0477295364        0.2000479712        0.3464890849
           0.0379245536        0.0536320062        0.0928942035
           0.0477295401       -0.2000480818       -0.3464890623
          -0.2045147015       -0.0216767771       -0.3464907894
          -0.2045208687       -0.2892255754       -0.1920203145
vibration 9
          -0.0178013681        0.0127335954       -0.0000841741
           0.0640691485        0.0369816782       -0.3542343597
           0.3976622462       -0.2790594756        0.0011126262
          -0.0134129464       -0.0786110227        0.3552414289
           0.0178013685       -0.0127335457        0.0000841453
           0.0134130581        0.0786102589       -0.3552410938
          -0.0640697933       -0.0369817451        0.3542343377
          -0.3976617175        0.2790597143       -0.0011125958
vibration 10
          -0.0104366279       -0.0145067063        0.0126361815
           0.4198695187        0.1402881183       -0.0780297155
          -0.1491763587       -0.2165566859       -0.1668925681
          -0.0078524660        0.4416125878       -0.0733133696
           0.0104365546        0.0145067036       -0.0126361496
           0.0078522109       -0.4416122702        0.0733138114
          -0.4198689591       -0.1402876960        0.0780290173
           0.1491769273        0.2165559777        0.1668924456
vibration 11
          -0.0406569195        0.0286528240        0.0000558390
           0.0983056375        0.0734233202       -0.3164043168
           0.4223345240       -0.2991928934       -0.0002108826
          -0.0365453252       -0.1153947381        0.3159504171
          -0.0406569454        0.0286528101        0.0000558573
          -0.0365454655       -0.1153939910        0.3159504847
           0.0983064683        0.0734234802       -0.3164046762
           0.4223344194       -0.2991935453       -0.0002109748
vibration 12
          -0.0233686081       -0.0332148496        0.0287167866
           0.4315175806        0.1301269684       -0.1156571073
          -0.1322787897       -0.1853123929       -0.1093733641
          -0.0209927585        0.4506687701       -0.1168952925
          -0.0233685975       -0.0332148829        0.0287168017
          -0.0209925409        0.4506694105       -0.1168959419
           0.4315180154        0.1301268711       -0.1156566364
          -0.1322796064       -0.1853121836       -0.1093735540
vibration 13
          -0.0115251791       -0.0162986355       -0.0282303138
          -0.1352581543        0.3846711935        0.0011986101
          -0.1352710568       -0.1912910338        0.3337327769
           0.4077575460        0.0006849038        0.0012021276
          -0.0115251846       -0.0162986435       -0.0282303280
           0.4077577291        0.0006847515        0.0012022192
          -0.1352580683        0.3846714182        0.0011985221
          -0.1352712642       -0.1912910163        0.3337329328
vibration 14
          -0.0126155574       -0.0178406229       -0.0309011335
          -0.1330768609        0.3852968265        0.0051218949
          -0.1330896934       -0.1882062298        0.3362362270
           0.4076203557        0.0029500230        0.0051253959
           0.0126155520        0.0178406154        0.0309011208
          -0.4076201691       -0.0029498674       -0.0051254857
           0.1330766513       -0.3852967016       -0.0051218031
           0.1330897802        0.1882060383       -0.3362360776
vibration 15
          -0.0534919601        0.0380522236       -0.0001308841
           0.1546756932       -0.4740817513       -0.0070776608
          -0.0121607597        0.0072486559        0.0016435599
           0.4965488334        0.0122265093        0.0069977623
           0.0534919720       -0.0380522346        0.0001308857
          -0.4965490801       -0.0122263262       -0.0069978764
          -0.1546755122        0.4740818138        0.0070775501
           0.0121606829       -0.0072487711       -0.0016433540
vibration 16
           0.0311312130        0.0436323758       -0.0379004239
           0.1018740075       -0.2668432179       -0.0121865674
          -0.1848288005       -0.2614561897        0.4772171886
          -0.2889670865        0.0070272291       -0.0122375732
          -0.0311312188       -0.0436323858        0.0379004319
           0.2889669073       -0.0070273426        0.0122376344
          -0.1018740052        0.2668435437        0.0121865117
           0.1848290459        0.2614560957       -0.4772172892
vibration 17
          -0.0537551898        0.0383898231       -0.0002183306
           0.1547852805       -0.4746852152       -0.0097186500
          -0.0105810380        0.0052562640        0.0027361440
           0.4958495937        0.0123279041        0.0095821308
          -0.0537551770        0.0383898132       -0.0002183302
           0.4958496131        0.0123277126        0.0095822423
           0.1547850158       -0.4746850324       -0.0097185334
          -0.0105809454        0.0052563915        0.0027359110
vibration 18
           0.0314480807        0.0438181543       -0.0381370429
           0.0991602317       -0.2665755175       -0.0122552647
          -0.1835371860       -0.2596610097        0.4787145919
          -0.2900699558        0.0045012704       -0.0123680908
           0.0314480767        0.0438181434       -0.0381370349
          -0.2900696825        0.0045013820       -0.0123681488
           0.0991601776       -0.2665757035       -0.0122552024
          -0.1835373560       -0.2596608049        0.4787144916
