[Molden Format]

[FREQ]
         313.6980883880
         921.6842942461
         921.6843315549
        1003.8134997179
        1351.5583866861
        1351.5583991608
        1571.3079724915
        1579.6674749571
        1677.0723273032
        1677.0723426618
        1678.0246425451
        1678.0246712186
        3195.9157066568
        3200.1220582927
        3240.6937534072
        3240.6937845281
        3267.5384926580
        3267.5385188328

[FR-COORD]
C         -0.4858680085       -0.6871030403       -1.1901081913
H          0.1744843204       -2.6260729125       -1.2307965809
H          0.1748317525        0.2469123994       -2.8896421922
H         -2.5340643670       -0.7104587916       -1.2309874132
C          0.4858680160        0.6871030462        1.1901082008
H          2.5340642528        0.7104686320        1.2309817071
H         -0.1744936201        2.6260695149        1.2308022655
H         -0.1748224282       -0.2469189120        2.8896421001

[FR-NORM-COORD]
vibration 1
          -0.0000000600       -0.0000000803       -0.0000001431
          -0.3333541073       -0.1178132045        0.2041120670
           0.3333111030       -0.2357337195        0.0000232588
           0.0000427062        0.3535464439       -0.2041361257
           0.0000000545        0.0000000829        0.0000001439
           0.0000405071        0.3535472031       -0.2041348699
          -0.3333526926       -0.1178150430        0.2041133441
           0.3333125493       -0.2357317103        0.0000223166
vibration 2
           0.0251747208        0.0294519897       -0.0272816206
          -0.0572045291       -0.0095032028        0.2991926122
          -0.2556315962       -0.3328523140       -0.3249405308
           0.0130861415       -0.0083247391        0.3505860034
           0.0251745149        0.0294520990       -0.0272816943
           0.0130870958       -0.0083239119        0.3505870370
          -0.0572049578       -0.0095045540        0.2991913510
          -0.2556318785       -0.3328521715       -0.3249404302
vibration 3
          -0.0369080237        0.0296491017       -0.0020498830
           0.2970046586        0.1272197728        0.3668253084
           0.1616842456       -0.1528926004       -0.0243694548
          -0.0192308452       -0.3273533151       -0.3180491065
          -0.0369081361        0.0296489739       -0.0020497227
          -0.0192301287       -0.3273530864       -0.3180481951
           0.2970045942        0.1272202848        0.3668261095
           0.1616838435       -0.1528930825       -0.0243713588
vibration 4
           0.1239906900        0.1753447304        0.3037087430
           0.1102013049        0.1732472562        0.2799790216
           0.1102007342        0.1558436039        0.2900273573
           0.1266093021        0.1616441361        0.2799791020
          -0.1239907221       -0.1753447425       -0.3037087217
          -0.1266093090       -0.1616427315       -0.2799803472
          -0.1102025988       -0.1732477191       -0.2799782758
          -0.1101990518       -0.1558444004       -0.2900271114
vibration 5
           0.0277105132        0.1152298088       -0.0778403159
           0.0090522215        0.0917782448        0.4022268019
          -0.1229230529       -0.3080052973       -0.3587527211
           0.0232369486       -0.1606580161        0.2111201824
          -0.0277104284       -0.1152298336        0.0778402936
          -0.0232389048        0.1606572148       -0.2111209295
          -0.0090519335       -0.0917766703       -0.4022264751
           0.1229237121        0.3080048184        0.3587534074
vibration 6
           0.1307787114       -0.0485727617       -0.0253478491
          -0.2827802643       -0.1795761231       -0.1934584576
          -0.2548134743        0.0515645314       -0.1168782894
           0.1098524374        0.2868801295        0.3932423938
          -0.1307787170        0.0485726892        0.0253479005
          -0.1098519648       -0.2868807583       -0.3932418758
           0.2827795977        0.1795774428        0.1934594898
           0.2548137348       -0.0515643594        0.1168761269
vibration 7
          -0.0287531959       -0.0406620868       -0.0704294778
           0.1994693188        0.0422655628        0.3501671150
           0.1994986691        0.2820983980        0.2116887850
          -0.0266364041        0.2021785625        0.3501510048
           0.0287522845        0.0406607935        0.0704272401
           0.0266356336       -0.2021715073       -0.3501414248
          -0.1994645694       -0.0422646987       -0.3501562432
          -0.1994917960       -0.2820909179       -0.2116825930
vibration 8
          -0.0312262352       -0.0441594106       -0.0764870484
           0.1992010017        0.0421817261        0.3496801382
           0.1992300175        0.2817188448        0.2113727260
          -0.0266260047        0.2018973167        0.3496642221
          -0.0312271053       -0.0441606253       -0.0764891581
          -0.0266268264        0.2019025453        0.3496751845
           0.1992077881        0.0421832638        0.3496901640
           0.1992352491        0.2817278401        0.2113790482
vibration 9
          -0.0188113649        0.0155271279       -0.0012846693
           0.0339991826        0.0212142289       -0.3426394080
           0.4115154855       -0.2626206596        0.0153716550
          -0.0078460197       -0.1198927710        0.3571814936
           0.0187943148       -0.0155204896        0.0012877947
           0.0078315963        0.1199039121       -0.3570817703
          -0.0339148796       -0.0211761862        0.3425139941
          -0.4113823526        0.2624924342       -0.0153831786
vibration 10
          -0.0132837943       -0.0149305619        0.0140432527
           0.4246636672        0.1458366874       -0.1115000897
          -0.1100833802       -0.2329046814       -0.1677325613
          -0.0054752119        0.4344440426       -0.0475168036
           0.0132791640        0.0149168791       -0.0140334648
           0.0054740543       -0.4342819352        0.0474495411
          -0.4245258060       -0.1457997156        0.1114899907
           0.1100018094        0.2328685217        0.1676933809
vibration 11
          -0.0398026709        0.0306811689       -0.0014639696
           0.0760384295        0.0604771796       -0.3118394221
           0.4277849788       -0.2886160099        0.0058780671
          -0.0299307528       -0.1371362137        0.3233818926
          -0.0398081091        0.0306883577       -0.0014658967
          -0.0299313641       -0.1372275019        0.3235163472
           0.0760035613        0.0604701374       -0.3119510794
           0.4279470661       -0.2886840321        0.0058996108
vibration 12
          -0.0257410290       -0.0320110844        0.0289903432
           0.4349595622        0.1365157742       -0.1304685292
          -0.1092171589       -0.1994323729       -0.1161702663
          -0.0192881829        0.4440491340       -0.0985176213
          -0.0257481332       -0.0320142255        0.0289950536
          -0.0192937206        0.4441832494       -0.0984849695
           0.4351106496        0.1365718197       -0.1305544400
          -0.1091985161       -0.1995492082       -0.1162263600
vibration 13
          -0.0111148827       -0.0157183813       -0.0272252922
          -0.1376918986        0.3838520637       -0.0033184341
          -0.1377618987       -0.1947530405        0.3307649552
           0.4077966517       -0.0019431656       -0.0032800013
          -0.0111137345       -0.0157168077       -0.0272224944
           0.4077561812       -0.0019410686       -0.0032809369
          -0.1376803224        0.3838137045       -0.0033170738
          -0.1377463753       -0.1947350829        0.3307319576
vibration 14
          -0.0114869816       -0.0162446119       -0.0281367356
          -0.1369671829        0.3840445414       -0.0020237694
          -0.1370370503       -0.1937280457        0.3315788496
           0.4077364232       -0.0011956695       -0.0019853724
           0.0114880793        0.0162461814        0.0281394345
          -0.4077767938        0.0011938478        0.0019868480
           0.1369827537       -0.3840820215        0.0020229213
           0.1370487792        0.1937486599       -0.3316116116
vibration 15
           0.0501459116       -0.0414429867        0.0034545568
          -0.1638108126        0.4955340824        0.0021449444
           0.0331053900        0.0131307061       -0.0434574656
          -0.4690896303       -0.0129653975       -0.0000074264
          -0.0501452502        0.0414423901       -0.0034545032
           0.4690816183        0.0129675252        0.0000060193
           0.1638114007       -0.4955275527       -0.0021463783
          -0.0331058421       -0.0131322590        0.0434596679
vibration 16
           0.0354665682        0.0397924297       -0.0374533784
           0.0930237910       -0.2220917162       -0.0117371371
          -0.1855480916       -0.2654080484        0.4716801922
          -0.3316911813        0.0115426706       -0.0119633616
          -0.0354659937       -0.0397919039        0.0374528562
           0.3316886031       -0.0115409035        0.0119622605
          -0.0930227390        0.2220856004        0.0117376323
           0.1855427769        0.2654061366       -0.4716733681
vibration 17
           0.0499648096       -0.0420503833        0.0038791789
          -0.1628853939        0.4985328001        0.0072842622
           0.0333413510        0.0166815666       -0.0489416054
          -0.4653783184       -0.0145276863       -0.0045313746
           0.0499655248       -0.0420508972        0.0038791890
          -0.4653830839       -0.0145301740       -0.0045300576
          -0.1628904260        0.4985397246        0.0072858271
           0.0333424993        0.0166833078       -0.0489446093
vibration 18
           0.0361626136        0.0395030173       -0.0375704579
           0.0887147639       -0.2175272981       -0.0129440930
          -0.1825548902       -0.2612145055        0.4744797285
          -0.3367418916        0.0083862007       -0.0141906679
           0.0361630936        0.0395035930       -0.0375709909
          -0.3367492466        0.0083846722       -0.0141899051
           0.0887161952       -0.2175272279       -0.0129449316
          -0.1825547353       -0.2612200150        0.4744862264
