[Molden Format]

[FREQ]
         943.4858369416
        1114.6759833949
        1156.5112381268
        1165.8480853166
        1387.4299397499
        1522.3126052966
        1639.7593163419
        1842.5729551214
        3305.4463137285
        3327.2364689847
        3371.1661781241
        3402.6729844559

[FR-COORD]
C         -1.2423406553        0.0000138196       -0.0000159113
C          1.2423406380       -0.0000138196        0.0000094150
H         -2.3147683491        1.7223394900        0.0000398401
H         -2.3148065079       -1.7222881649       -0.0000211649
H          2.3147684523       -1.7223395768       -0.0000026012
H          2.3148066103        1.7222882512        0.0000612765

[FR-NORM-COORD]
vibration 1
          -0.0000004541       -0.0404924669       -0.0000007423
          -0.0000004550       -0.0404924365       -0.0000007257
           0.4371140069        0.2410635445        0.0000091786
          -0.4371085892        0.2410731778       -0.0000001146
           0.4371138823        0.2410635053        0.0000025318
          -0.4371084755        0.2410731428        0.0000058837
vibration 2
          -0.0000002114        0.0000014577       -0.0833995927
           0.0000005509        0.0000015659       -0.0833988451
           0.0000059975       -0.0000114758        0.4965119623
           0.0000059680       -0.0000062011        0.4965106635
          -0.0000080184       -0.0000083942        0.4965095480
          -0.0000079889       -0.0000099301        0.4965082488
vibration 3
           0.0000006746       -0.0000027589        0.1527885794
           0.0000016378        0.0000027803       -0.1527891178
          -0.0000045286        0.0000123471       -0.4881866137
          -0.0000050073        0.0000052245       -0.4881867146
          -0.0000087594       -0.0000086129        0.4881899686
          -0.0000092381       -0.0000092132        0.4881897699
vibration 4
           0.0000000437        0.0000017957        0.0000000789
          -0.0000000437       -0.0000015172        0.0000001092
          -0.0000020616       -0.0000143454        0.4999995008
           0.0000021164        0.0000034766       -0.5000005241
          -0.0000002684       -0.0000054401        0.4999993790
           0.0000002136        0.0000129921       -0.5000005958
vibration 5
           0.0000016833        0.1540299426        0.0000027689
          -0.0000016844       -0.1540299572       -0.0000028153
          -0.4657672337       -0.1455966033       -0.0000136378
           0.4657636679       -0.1456067677        0.0000086353
           0.4657673877        0.1455966963        0.0000034345
          -0.4657638083        0.1456068480        0.0000021204
vibration 6
           0.1111228338       -0.0000011902        0.0000014774
          -0.1111228426        0.0000011907        0.0000000396
           0.4564102948        0.1884552531        0.0000020540
           0.4564064064       -0.1884654585       -0.0000044977
          -0.4564102484       -0.1884552193       -0.0000113663
          -0.4564063479        0.1884654187       -0.0000042530
vibration 7
          -0.0684546243        0.0000007604        0.0000001008
          -0.0684545695        0.0000007626       -0.0000005340
           0.4075416973        0.2855988636        0.0000013572
           0.4075354494       -0.2856079278       -0.0000087590
           0.4075417029        0.2855988293        0.0000115764
           0.4075354663       -0.2856078991        0.0000009838
vibration 8
           0.2847356465       -0.0000031754        0.0000018961
          -0.2847356703        0.0000031754       -0.0000029338
          -0.2561006437       -0.3793087939       -0.0000033547
          -0.2560923172        0.3793144674        0.0000104339
           0.2561007871        0.3793089142        0.0000094953
           0.2560924578       -0.3793145871       -0.0000042196
vibration 9
           0.0431296366       -0.0000003584       -0.0000007033
           0.0431313945       -0.0000003580        0.0000006472
          -0.2567646215        0.4279406933        0.0000124089
          -0.2567750203       -0.4279364264       -0.0000027488
          -0.2567726387        0.4279539379        0.0000034402
          -0.2567830382       -0.4279496739       -0.0000124318
vibration 10
           0.0564606074       -0.0000003520       -0.0000006218
          -0.0564592305        0.0000003566       -0.0000009180
          -0.2579340460        0.4264764140        0.0000124202
          -0.2579456302       -0.4264740471       -0.0000027506
           0.2579258670       -0.4264627726       -0.0000035437
           0.2579374148        0.4264603507        0.0000122081
vibration 11
          -0.0000005353       -0.0691177385       -0.0000012279
           0.0000005352        0.0691193955        0.0000012779
          -0.2672831044        0.4197228084        0.0000127831
           0.2672902914        0.4197134114        0.0000021359
           0.2672894673       -0.4197326751       -0.0000036106
          -0.2672966540       -0.4197232737       -0.0000119040
vibration 12
          -0.0000006976       -0.0702569495       -0.0000012514
          -0.0000007015       -0.0702553145       -0.0000012957
          -0.2694194524        0.4182726049        0.0000130951
           0.2694277642        0.4182650609        0.0000017601
          -0.2694131146        0.4182626380        0.0000024339
           0.2694214619        0.4182551518        0.0000130387
