[Molden Format]

[FREQ]
        2170.2025015352
        4140.6140339380
        4391.6508788037

[FR-COORD]
O         -0.0000000000        0.0000000000       -0.1344601028
H          1.4324568349        0.0000000000        1.0669897032
H         -1.4324568349       -0.0000000000        1.0669897032

[FR-NORM-COORD]
vibration 1
           0.0000000000       -0.0000000000       -0.0686682956
          -0.4480153766        0.0000000000        0.5449078408
           0.4480153766        0.0000000000        0.5449078408
vibration 2
          -0.0000000000       -0.0000000000       -0.0524749061
           0.5702876933       -0.0000000000        0.4164074196
          -0.5702876932       -0.0000000000        0.4164074195
vibration 3
          -0.0681146627       -0.0000000000        0.0000000000
           0.5405145628       -0.0000000000        0.4533477734
           0.5405145629       -0.0000000000       -0.4533477735
