[Molden Format]

[FREQ]
        1433.9965809080
        1433.9966392345
        1433.9966496153
        1648.4129127202
        1648.4129192388
        3164.0884213958
        3284.8447895096
        3284.8448847180
        3284.8449004528

[FR-COORD]
C         -0.0000000048        0.0000000204        0.0000000000
H          0.6871263375       -1.9435628042        0.0000000000
H          0.6871622127        0.9717686460        1.6831674935
H          0.6871622127        0.9717686460       -1.6831674935
H         -2.0614507061        0.0000252698        0.0000000000

[FR-NORM-COORD]
vibration 1
           0.0409211534       -0.1175270600       -0.0000058383
           0.0347948391       -0.0897822434        0.0000283261
          -0.2768550785        0.4594607796       -0.1918014997
          -0.2768372015        0.4594860607        0.1918143633
           0.0316562777        0.5702099718        0.0000283261
vibration 2
          -0.1175270470       -0.0409211515        0.0000469457
           0.5691002394        0.2016861493       -0.0002277690
           0.4606549077        0.0436053289       -0.2685840518
           0.4605111601        0.0434020445        0.2684806158
          -0.0908918927        0.1985476176       -0.0002277691
vibration 3
          -0.0000462549       -0.0000099232       -0.1244473670
           0.0002130511        0.0000802947        0.6037884334
          -0.1903420948       -0.2694465225        0.1370059567
           0.1907155651        0.2694362331        0.1371905583
          -0.0000357726        0.0000481479        0.6037885303
vibration 4
          -0.0000000070       -0.0000000033        0.0000000000
           0.4714064678        0.1666608323       -0.0004092465
          -0.2360404011       -0.3330940341        0.2886750074
          -0.2353721103       -0.3335665995       -0.2886750074
           0.0000061272        0.4999998411        0.0004092464
vibration 5
           0.0000000000       -0.0000000000       -0.0000000066
           0.0003858429        0.0001364107        0.4999998860
           0.4080516586       -0.2889528999        0.0002362740
          -0.4084375066        0.2884072428       -0.0002362831
           0.0000000050        0.0004092465       -0.4999997984
vibration 6
           0.0000000056       -0.0000000234        0.0000000000
          -0.1666609302        0.4714067423       -0.0000000000
          -0.1666695467       -0.2357001649       -0.4082482390
          -0.1666695467       -0.2357001648        0.4082482389
           0.4999999574       -0.0000061344        0.0000000000
vibration 7
           0.0309890828       -0.0874577310        0.0000022473
          -0.2873009389        0.8126768301        0.0000004042
           0.1031012013        0.1221893229        0.2388879207
           0.1031127855        0.1222057051       -0.2389154873
          -0.2878947479       -0.0157276381        0.0000004042
vibration 8
          -0.0874577357       -0.0309890840        0.0000026057
          -0.0159375130       -0.0049906265        0.0000004687
           0.1224006581        0.1897687889        0.3383472160
           0.1224140898        0.1897877838       -0.3383791790
           0.8124670411       -0.0055842316        0.0000004687
vibration 9
          -0.0000017055       -0.0000029885       -0.0927856620
          -0.0000074061        0.0000195431       -0.0166895864
           0.2391499618        0.3382001519        0.5690963601
          -0.2391380921       -0.3381835736        0.5690657831
           0.0000158436       -0.0000005378       -0.0166895755
