Generated by Psi4
        SP                           RHF                       CC-PVDZ
Number of atoms                            I               10
Charge                                     I                0
Multiplicity                               I                1
Number of electrons                        I               42
Number of alpha electrons                  I               21
Number of beta electrons                   I               21
Number of basis functions                  I              104
Number of independent functions            I              104
Atomic numbers                             I   N=          10
           6           6           7           6           6           7
           1           1           1           1
Nuclear charges                            R   N=          10
  6.00000000e+00  6.00000000e+00  7.00000000e+00  6.00000000e+00  6.00000000e+00
  7.00000000e+00  1.00000000e+00  1.00000000e+00  1.00000000e+00  1.00000000e+00
Current cartesian coordinates              R   N=          30
 -1.32158584e+00 -2.14032230e+00  7.16444537e-05  1.32162992e+00 -2.14029513e+00
  1.16386740e-04  2.67167742e+00  3.00979982e-05  1.84800393e-05  1.32159008e+00
  2.14031918e+00 -7.10570681e-05 -1.32163434e+00  2.14029174e+00 -1.17934471e-04
 -2.67167739e+00 -2.49310790e-05 -1.81781223e-05 -2.38042898e+00 -3.91841119e+00
  7.96420088e-05  2.38051117e+00 -3.91836131e+00  1.28103676e-04  2.38042535e+00
  3.91841350e+00 -7.49516728e-05 -2.38050579e+00  3.91836473e+00 -1.25554283e-04
Integer atomic weights                     I   N=          10
          12          12          14          12          12          14
           1           1           1           1
Real atomic weights                        R   N=          10
  1.20000000e+01  1.20000000e+01  1.40030740e+01  1.20000000e+01  1.20000000e+01
  1.40030740e+01  1.00782503e+00  1.00782503e+00  1.00782503e+00  1.00782503e+00
Number of primitive shells                 I              152
Number of contracted shells                I               48
Pure/Cartesian d shells                    I                0
Pure/Cartesian f shells                    I                0
Highest angular momentum                   I                2
Largest degree of contraction              I                8
Shell types                                I   N=          48
           0           0           0           1           1          -2
           0           0           0           1           1          -2
           0           0           0           1           1          -2
           0           0           0           1           1          -2
           0           0           0           1           1          -2
           0           0           0           1           1          -2
           0           0           1           0           0           1
           0           0           1           0           0           1
Number of primitives per shell             I   N=          48
           8           8           1           3           1           1
           8           8           1           3           1           1
           8           8           1           3           1           1
           8           8           1           3           1           1
           8           8           1           3           1           1
           8           8           1           3           1           1
           3           1           1           3           1           1
           3           1           1           3           1           1
Shell to atom map                          I   N=          48
           1           1           1           1           1           1
           2           2           2           2           2           2
           3           3           3           3           3           3
           4           4           4           4           4           4
           5           5           5           5           5           5
           6           6           6           6           6           6
           7           7           7           8           8           8
           9           9           9          10          10          10
Primitive exponents                        R   N=         152
  6.66500000e+03  1.00000000e+03  2.28000000e+02  6.47100000e+01  2.10600000e+01
  7.49500000e+00  2.79700000e+00  5.21500000e-01  6.66500000e+03  1.00000000e+03
  2.28000000e+02  6.47100000e+01  2.10600000e+01  7.49500000e+00  2.79700000e+00
  5.21500000e-01  1.59600000e-01  9.43900000e+00  2.00200000e+00  5.45600000e-01
  1.51700000e-01  5.50000000e-01  6.66500000e+03  1.00000000e+03  2.28000000e+02
  6.47100000e+01  2.10600000e+01  7.49500000e+00  2.79700000e+00  5.21500000e-01
  6.66500000e+03  1.00000000e+03  2.28000000e+02  6.47100000e+01  2.10600000e+01
  7.49500000e+00  2.79700000e+00  5.21500000e-01  1.59600000e-01  9.43900000e+00
  2.00200000e+00  5.45600000e-01  1.51700000e-01  5.50000000e-01  9.04600000e+03
  1.35700000e+03  3.09300000e+02  8.77300000e+01  2.85600000e+01  1.02100000e+01
  3.83800000e+00  7.46600000e-01  9.04600000e+03  1.35700000e+03  3.09300000e+02
  8.77300000e+01  2.85600000e+01  1.02100000e+01  3.83800000e+00  7.46600000e-01
  2.24800000e-01  1.35500000e+01  2.91700000e+00  7.97300000e-01  2.18500000e-01
  8.17000000e-01  6.66500000e+03  1.00000000e+03  2.28000000e+02  6.47100000e+01
  2.10600000e+01  7.49500000e+00  2.79700000e+00  5.21500000e-01  6.66500000e+03
  1.00000000e+03  2.28000000e+02  6.47100000e+01  2.10600000e+01  7.49500000e+00
  2.79700000e+00  5.21500000e-01  1.59600000e-01  9.43900000e+00  2.00200000e+00
  5.45600000e-01  1.51700000e-01  5.50000000e-01  6.66500000e+03  1.00000000e+03
  2.28000000e+02  6.47100000e+01  2.10600000e+01  7.49500000e+00  2.79700000e+00
  5.21500000e-01  6.66500000e+03  1.00000000e+03  2.28000000e+02  6.47100000e+01
  2.10600000e+01  7.49500000e+00  2.79700000e+00  5.21500000e-01  1.59600000e-01
  9.43900000e+00  2.00200000e+00  5.45600000e-01  1.51700000e-01  5.50000000e-01
  9.04600000e+03  1.35700000e+03  3.09300000e+02  8.77300000e+01  2.85600000e+01
  1.02100000e+01  3.83800000e+00  7.46600000e-01  9.04600000e+03  1.35700000e+03
  3.09300000e+02  8.77300000e+01  2.85600000e+01  1.02100000e+01  3.83800000e+00
  7.46600000e-01  2.24800000e-01  1.35500000e+01  2.91700000e+00  7.97300000e-01
  2.18500000e-01  8.17000000e-01  1.30100000e+01  1.96200000e+00  4.44600000e-01
  1.22000000e-01  7.27000000e-01  1.30100000e+01  1.96200000e+00  4.44600000e-01
  1.22000000e-01  7.27000000e-01  1.30100000e+01  1.96200000e+00  4.44600000e-01
  1.22000000e-01  7.27000000e-01  1.30100000e+01  1.96200000e+00  4.44600000e-01
  1.22000000e-01  7.27000000e-01
Contraction coefficients                   R   N=         152
  6.91583963e-04  5.32579615e-03  2.70607210e-02  1.01656846e-01  2.74574824e-01
  4.48294319e-01  2.84902611e-01  1.51948592e-02 -2.93269653e-04 -2.31803547e-03
 -1.14997860e-02 -4.68267270e-02 -1.28466169e-01 -3.01266272e-01 -2.55630702e-01
  1.09379336e+00  1.00000000e+00  5.69792516e-02  3.13207212e-01  7.60376742e-01
  1.00000000e+00  1.00000000e+00  6.91583963e-04  5.32579615e-03  2.70607210e-02
  1.01656846e-01  2.74574824e-01  4.48294319e-01  2.84902611e-01  1.51948592e-02
 -2.93269653e-04 -2.31803547e-03 -1.14997860e-02 -4.68267270e-02 -1.28466169e-01
 -3.01266272e-01 -2.55630702e-01  1.09379336e+00  1.00000000e+00  5.69792516e-02
  3.13207212e-01  7.60376742e-01  1.00000000e+00  1.00000000e+00  6.99617413e-04
  5.38605463e-03  2.73910212e-02  1.03150592e-01  2.78570663e-01  4.48294849e-01
  2.78085928e-01  1.54315612e-02 -3.04990096e-04 -2.40802638e-03 -1.19444487e-02
 -4.89259929e-02 -1.34472725e-01 -3.15112578e-01 -2.42857833e-01  1.09438221e+00
  1.00000000e+00  5.89056768e-02  3.20461107e-01  7.53042062e-01  1.00000000e+00
  1.00000000e+00  6.91583963e-04  5.32579615e-03  2.70607210e-02  1.01656846e-01
  2.74574824e-01  4.48294319e-01  2.84902611e-01  1.51948592e-02 -2.93269653e-04
 -2.31803547e-03 -1.14997860e-02 -4.68267270e-02 -1.28466169e-01 -3.01266272e-01
 -2.55630702e-01  1.09379336e+00  1.00000000e+00  5.69792516e-02  3.13207212e-01
  7.60376742e-01  1.00000000e+00  1.00000000e+00  6.91583963e-04  5.32579615e-03
  2.70607210e-02  1.01656846e-01  2.74574824e-01  4.48294319e-01  2.84902611e-01
  1.51948592e-02 -2.93269653e-04 -2.31803547e-03 -1.14997860e-02 -4.68267270e-02
 -1.28466169e-01 -3.01266272e-01 -2.55630702e-01  1.09379336e+00  1.00000000e+00
  5.69792516e-02  3.13207212e-01  7.60376742e-01  1.00000000e+00  1.00000000e+00
  6.99617413e-04  5.38605463e-03  2.73910212e-02  1.03150592e-01  2.78570663e-01
  4.48294849e-01  2.78085928e-01  1.54315612e-02 -3.04990096e-04 -2.40802638e-03
 -1.19444487e-02 -4.89259929e-02 -1.34472725e-01 -3.15112578e-01 -2.42857833e-01
  1.09438221e+00  1.00000000e+00  5.89056768e-02  3.20461107e-01  7.53042062e-01
  1.00000000e+00  1.00000000e+00  3.34987264e-02  2.34800801e-01  8.13682958e-01
  1.00000000e+00  1.00000000e+00  3.34987264e-02  2.34800801e-01  8.13682958e-01
  1.00000000e+00  1.00000000e+00  3.34987264e-02  2.34800801e-01  8.13682958e-01
  1.00000000e+00  1.00000000e+00  3.34987264e-02  2.34800801e-01  8.13682958e-01
  1.00000000e+00  1.00000000e+00
Coordinates of each shell                  R   N=         144
 -1.32158584e+00 -2.14032230e+00  7.16444537e-05 -1.32158584e+00 -2.14032230e+00
  7.16444537e-05 -1.32158584e+00 -2.14032230e+00  7.16444537e-05 -1.32158584e+00
 -2.14032230e+00  7.16444537e-05 -1.32158584e+00 -2.14032230e+00  7.16444537e-05
 -1.32158584e+00 -2.14032230e+00  7.16444537e-05  1.32162992e+00 -2.14029513e+00
  1.16386740e-04  1.32162992e+00 -2.14029513e+00  1.16386740e-04  1.32162992e+00
 -2.14029513e+00  1.16386740e-04  1.32162992e+00 -2.14029513e+00  1.16386740e-04
  1.32162992e+00 -2.14029513e+00  1.16386740e-04  1.32162992e+00 -2.14029513e+00
  1.16386740e-04  2.67167742e+00  3.00979982e-05  1.84800393e-05  2.67167742e+00
  3.00979982e-05  1.84800393e-05  2.67167742e+00  3.00979982e-05  1.84800393e-05
  2.67167742e+00  3.00979982e-05  1.84800393e-05  2.67167742e+00  3.00979982e-05
  1.84800393e-05  2.67167742e+00  3.00979982e-05  1.84800393e-05  1.32159008e+00
  2.14031918e+00 -7.10570681e-05  1.32159008e+00  2.14031918e+00 -7.10570681e-05
  1.32159008e+00  2.14031918e+00 -7.10570681e-05  1.32159008e+00  2.14031918e+00
 -7.10570681e-05  1.32159008e+00  2.14031918e+00 -7.10570681e-05  1.32159008e+00
  2.14031918e+00 -7.10570681e-05 -1.32163434e+00  2.14029174e+00 -1.17934471e-04
 -1.32163434e+00  2.14029174e+00 -1.17934471e-04 -1.32163434e+00  2.14029174e+00
 -1.17934471e-04 -1.32163434e+00  2.14029174e+00 -1.17934471e-04 -1.32163434e+00
  2.14029174e+00 -1.17934471e-04 -1.32163434e+00  2.14029174e+00 -1.17934471e-04
 -2.67167739e+00 -2.49310790e-05 -1.81781223e-05 -2.67167739e+00 -2.49310790e-05
 -1.81781223e-05 -2.67167739e+00 -2.49310790e-05 -1.81781223e-05 -2.67167739e+00
 -2.49310790e-05 -1.81781223e-05 -2.67167739e+00 -2.49310790e-05 -1.81781223e-05
 -2.67167739e+00 -2.49310790e-05 -1.81781223e-05 -2.38042898e+00 -3.91841119e+00
  7.96420088e-05 -2.38042898e+00 -3.91841119e+00  7.96420088e-05 -2.38042898e+00
 -3.91841119e+00  7.96420088e-05  2.38051117e+00 -3.91836131e+00  1.28103676e-04
  2.38051117e+00 -3.91836131e+00  1.28103676e-04  2.38051117e+00 -3.91836131e+00
  1.28103676e-04  2.38042535e+00  3.91841350e+00 -7.49516728e-05  2.38042535e+00
  3.91841350e+00 -7.49516728e-05  2.38042535e+00  3.91841350e+00 -7.49516728e-05
 -2.38050579e+00  3.91836473e+00 -1.25554283e-04 -2.38050579e+00  3.91836473e+00
 -1.25554283e-04 -2.38050579e+00  3.91836473e+00 -1.25554283e-04
Total Energy                               R     -2.643326764837309e+02
Alpha Orbital Energies                     R   N=         104
 -1.43504718e+01 -1.43504233e+01 -1.02379875e+01 -1.02379746e+01 -1.02375260e+01
 -1.02375218e+01 -9.86378063e-01 -9.13921536e-01 -7.81698478e-01 -6.63919522e-01
 -6.59656826e-01 -5.28291859e-01 -5.19305286e-01 -4.90524723e-01 -4.39879173e-01
 -4.28939290e-01 -3.91238589e-01 -3.33870493e-01 -3.14733751e-01 -2.80882656e-01
 -2.52802998e-01 -5.53586788e-02 -3.07070054e-02  7.19880508e-02  8.72450251e-02
  1.16819438e-01  1.20701106e-01  1.25075584e-01  1.71354255e-01  2.66943767e-01
  2.93334315e-01  2.94033631e-01  3.75811835e-01  4.10594403e-01  4.29868019e-01
  4.40302738e-01  4.41397504e-01  4.81038633e-01  4.94106812e-01  5.21544158e-01
  5.25667921e-01  5.29102927e-01  5.56272518e-01  5.73818187e-01  6.01177439e-01
  6.57662890e-01  6.69539755e-01  7.12420971e-01  7.64092260e-01  8.20425854e-01
  8.56759098e-01  8.56893727e-01  8.57150483e-01  8.70917819e-01  8.91326177e-01
  8.92702606e-01  9.56971850e-01  9.69272562e-01  1.01934858e+00  1.03584016e+00
  1.07608538e+00  1.14544824e+00  1.14602560e+00  1.17175858e+00  1.17359577e+00
  1.25281426e+00  1.33631466e+00  1.37600287e+00  1.47510669e+00  1.52415462e+00
  1.54433389e+00  1.55557139e+00  1.55861239e+00  1.60694568e+00  1.61176958e+00
  1.62706092e+00  1.62989670e+00  1.66940440e+00  1.68961076e+00  1.74371059e+00
  1.81408549e+00  1.82354489e+00  1.89135502e+00  1.90701920e+00  1.94758512e+00
  1.97919926e+00  2.03686731e+00  2.12944923e+00  2.14363102e+00  2.17630920e+00
  2.18308285e+00  2.21649928e+00  2.36731597e+00  2.43193624e+00  2.49152550e+00
  2.51553628e+00  2.52378010e+00  2.54388315e+00  2.75724547e+00  2.80193529e+00
  2.84009105e+00  2.85752853e+00  2.92599562e+00  3.38293908e+00
Alpha MO coefficients                      R   N=       10816
  1.55032659e-04  1.64939202e-04  9.11964386e-03  1.65951716e-04 -6.99316629e-05
 -1.04380927e-08  1.13526677e-03  6.84920659e-03 -1.94343356e-07  6.54515451e-05
 -2.69114659e-08  5.84445264e-08  2.73119140e-04  1.49425159e-03 -1.55039423e-04
 -1.64804363e-04 -9.12247979e-03  1.65863857e-04  7.01484957e-05  1.19382931e-08
  1.13484272e-03 -6.85063486e-03  3.09920999e-07 -6.54871598e-05 -5.13746298e-08
  1.34197763e-09 -2.73227496e-04  1.49476214e-03 -7.11908072e-01 -1.02228077e-02
  2.07624063e-02  1.86229640e-03  4.88349044e-09 -7.07162665e-09 -5.50981412e-03
 -3.80781947e-08  4.41537526e-09  5.45054619e-05  1.78638521e-09  2.45155421e-08
  4.17784481e-04  1.36919100e-08 -1.55040520e-04 -1.64800121e-04 -9.12248925e-03
  1.65875264e-04 -7.01603368e-05 -1.07426705e-08  1.13466105e-03  6.85070802e-03
 -1.90121131e-07 -6.54979325e-05  2.57504816e-08 -6.05472484e-08 -2.73171434e-04
 -1.49477920e-03  1.55033723e-04  1.64934776e-04  9.11965328e-03  1.65960395e-04
  6.99506341e-05  1.33331012e-08  1.13536865e-03 -6.84923107e-03  3.11178330e-07
  6.54624877e-05  5.10608442e-08 -1.31838504e-09  2.73186600e-04 -1.49424660e-03
  7.11354683e-01  1.02159965e-02 -2.07517569e-02  1.86097875e-03  3.36775505e-08
 -9.07805115e-09 -5.50709084e-03 -7.45203036e-08  9.00127170e-09 -5.45391201e-05
 -1.25121835e-09 -2.52551843e-08 -4.17578406e-04 -3.29591507e-09 -2.49513161e-04
  1.47757084e-03  1.12366223e-04 -6.18634813e-04  2.80937984e-08  2.49875179e-04
 -1.47776871e-03  1.12437305e-04  6.18863391e-04 -2.88210855e-08  2.49861937e-04
 -1.47777716e-03  1.12459797e-04 -6.18859448e-04  2.82575173e-08 -2.49500584e-04
  1.47757850e-03  1.12362489e-04  6.18635417e-04 -2.90825417e-08  9.15283646e-06
 -1.72481245e-04  3.64814921e-03 -1.10251167e-04 -2.74134527e-04  3.36452427e-09
 -7.27552819e-04  1.87044571e-03 -6.13555343e-08  4.61293314e-05 -7.79445847e-09
  6.04056956e-09  6.00496797e-05  6.70337072e-04  9.03193784e-06 -1.72609902e-04
  3.64104901e-03  1.10385945e-04 -2.74077483e-04  5.04269359e-09  7.28398633e-04
  1.86512322e-03 -1.02700333e-07  4.60780662e-05  3.51053705e-08  2.02781840e-08
  5.98645528e-05 -6.69170778e-04  7.10573471e-01  8.74749424e-03 -1.36785901e-02
 -1.69215836e-03 -4.91519176e-09 -6.86812587e-09  3.49766359e-03  3.06083828e-08
  8.07586883e-09  4.31919140e-05  7.72121140e-10 -9.67784078e-09 -2.64674537e-04
 -1.19883186e-08  9.03127861e-06 -1.72616728e-04  3.64107379e-03  1.10370887e-04
  2.74093611e-04 -3.05872533e-09  7.28436584e-04 -1.86512810e-03  5.94144132e-08
  4.60858313e-05 -6.46487478e-09  5.62921441e-09  5.98415990e-05  6.69182095e-04
  9.15213241e-06 -1.72488289e-04  3.64817316e-03 -1.10247244e-04  2.74146247e-04
 -4.80037819e-09 -7.27514736e-04 -1.87047696e-03  1.06068215e-07  4.61372780e-05
  3.61939642e-08  2.16407285e-08  6.00818850e-05 -6.70343727e-04  7.11127469e-01
  8.75545140e-03 -1.36947530e-02  1.69360790e-03  3.01870978e-08  5.18858623e-09
 -3.50195261e-03 -4.10710247e-08 -6.09219547e-09  4.31492235e-05  8.99205985e-10
 -9.38670623e-09 -2.65000036e-04  1.24851278e-09 -4.63265300e-04  2.55198119e-04
  1.09143993e-04 -2.90840925e-04  5.05083782e-09 -4.63072183e-04  2.54045225e-04
 -1.09049485e-04 -2.90361079e-04  8.92727884e-09 -4.63066921e-04  2.54053038e-04
 -1.09061844e-04  2.90359765e-04 -4.41990142e-09 -4.63260824e-04  2.55204082e-04
  1.09143749e-04  2.90843897e-04 -8.91101639e-09  4.66912629e-01  7.30265826e-03
 -3.60053776e-03 -5.49574427e-04  2.76732100e-04 -2.85602380e-08 -2.07611788e-03
 -1.61551275e-03  5.45139178e-08 -3.28963210e-05 -5.33749593e-09  1.08274355e-08
 -5.65457900e-04  3.49993070e-05  4.66909553e-01  7.30260852e-03 -3.60053965e-03
  5.49570700e-04  2.76741852e-04 -3.43209816e-08  2.07615878e-03 -1.61550213e-03
  6.14306610e-08 -3.28858380e-05 -3.93529703e-08  4.76974328e-09 -5.65458081e-04
 -3.50241813e-05 -1.98505272e-05 -3.59664671e-05  3.02579325e-04 -3.40475658e-05
  5.06207125e-04 -2.55231472e-08 -1.70699036e-04  2.45889486e-03 -1.04215858e-07
 -6.63187281e-05  5.41409355e-08 -6.45557947e-09 -1.87465783e-05 -1.05123244e-03
 -5.36844357e-01 -8.28674880e-03  4.04628453e-03 -6.92068666e-04  3.04953494e-04
 -3.53138624e-08 -2.08700030e-03 -1.41916657e-03  4.08302026e-08  1.01608616e-04
  5.41654010e-09 -5.42060374e-09  6.96410774e-04 -4.55149398e-05 -5.36840361e-01
 -8.28668269e-03  4.04626426e-03  6.92065185e-04  3.04966258e-04 -4.24523686e-08
  2.08702523e-03 -1.41915517e-03  6.28661792e-08  1.01596113e-04  4.56092739e-08
 -3.72684132e-10  6.96413877e-04  4.55425450e-05 -1.98443463e-05 -3.59555505e-05
  3.02510092e-04  3.40343768e-05  5.06208208e-04 -2.46863664e-08  1.70621924e-04
  2.45889556e-03 -1.13477369e-07 -6.63097831e-05 -5.64814276e-08 -6.43995461e-09
 -1.87851620e-05  1.05123128e-03 -1.50159651e-03  7.21648637e-05 -4.21911232e-04
 -7.55610796e-04 -2.60734195e-09 -1.50159141e-03  7.21504518e-05  4.21924393e-04
 -7.55593862e-04 -2.46287919e-09  1.67562677e-03 -3.06076232e-04 -4.92279622e-04
 -8.87803865e-04 -3.96328928e-09  1.67561840e-03 -3.06062356e-04  4.92293934e-04
 -8.87783784e-04 -5.35921012e-09  5.36439118e-01  7.59978142e-03 -3.46292160e-03
 -1.06505978e-03  2.22589581e-04 -4.06078333e-08 -2.23189862e-04  1.30203354e-03
 -7.73319096e-08 -4.97368003e-04 -2.53699518e-09 -5.27082272e-08 -9.82842119e-04
  7.82465958e-05  5.36435490e-01  7.59971648e-03 -3.46284210e-03  1.06505702e-03
  2.22610104e-04 -4.52900806e-08  2.23107565e-04  1.30202679e-03  1.23006321e-08
 -4.97359520e-04 -2.83747266e-08 -4.45568403e-08 -9.82841166e-04 -7.82884487e-05
  2.84717155e-04  5.15811003e-04 -4.33842222e-03  4.88071943e-04  3.52935204e-05
  3.20588374e-09  2.44723738e-03  1.71447182e-04 -5.26427645e-08  9.51002242e-04
  1.31752927e-08  8.74544699e-08  2.69197834e-04 -7.32907752e-05  4.66447097e-01
  6.51274453e-03 -2.92966838e-03  9.78479954e-04 -1.82032775e-04  3.75147814e-08
 -6.70923949e-05 -1.51367038e-03  8.38073711e-08 -4.87994450e-04 -2.27587846e-09
 -5.19621581e-08 -8.94869733e-04  7.26264781e-05  4.66443569e-01  6.51268175e-03
 -2.92958326e-03 -9.78478331e-04 -1.82052216e-04  4.24756426e-08  6.71804060e-05
 -1.51366864e-03 -6.14827540e-09 -4.87986476e-04 -2.44920330e-08 -4.37582499e-08
 -8.94871423e-04 -7.26619810e-05  2.84717423e-04  5.15811572e-04 -4.33843234e-03
 -4.88073333e-04  3.52854451e-05 -6.60896175e-09 -2.44724448e-03  1.71437162e-04
  4.03437064e-08  9.51002610e-04  6.91080161e-09  8.83955519e-08  2.69194787e-04
  7.33095383e-05 -1.35862805e-03  1.69044106e-03 -5.36434475e-04 -1.00514910e-03
  6.34775044e-09 -1.35861982e-03  1.69044018e-03  5.36454355e-04 -1.00512911e-03
 -1.42434525e-09 -1.13708476e-03  1.66407198e-03  4.72688097e-04  8.90559116e-04
 -4.60092974e-09 -1.13707481e-03  1.66407570e-03 -4.72704712e-04  8.90540998e-04
  3.44555975e-09  3.79072093e-01  6.06254228e-03  1.23523564e-03  2.66838809e-04
  2.24075558e-04 -1.28037169e-08  1.89929016e-03  4.31189520e-03 -8.25550717e-08
 -1.33736105e-03  7.59914452e-08 -4.94666272e-08  3.86525122e-04 -5.50059143e-05
 -3.79074595e-01 -6.06258169e-03 -1.23521375e-03  2.66840300e-04 -2.24071444e-04
  5.89682253e-08  1.89936591e-03 -4.31184070e-03  1.44435780e-07  1.33736051e-03
 -8.40028493e-09  6.68865375e-08 -3.86521773e-04 -5.50207947e-05 -8.37813954e-04
 -1.49460014e-03  9.69557182e-03 -3.94009473e-04  6.26033176e-05 -2.15481413e-09
 -3.65057098e-03  1.25105332e-03 -2.74106953e-08 -1.23968792e-03  8.74868038e-09
 -1.22378895e-07 -6.84520066e-04 -2.30243595e-04 -6.02227398e-01 -1.00540976e-02
  3.90374812e-03  3.92390985e-04  3.20287112e-04 -1.31067124e-08 -1.61366329e-03
  4.56016785e-03 -1.39777166e-07  1.84917853e-03 -1.08819342e-07  5.38403045e-08
 -6.43198280e-04  3.87010929e-05  6.02231875e-01  1.00541666e-02 -3.90377857e-03
  3.92391585e-04 -3.20282448e-04  8.51727386e-08 -1.61358448e-03 -4.56019496e-03
  1.11641266e-07 -1.84917997e-03  4.38496337e-09 -7.90906876e-08  6.43189647e-04
  3.87283891e-05  8.37814543e-04  1.49460132e-03 -9.69558702e-03 -3.94009693e-04
 -6.26152845e-05  3.34385276e-09 -3.65055235e-03 -1.25114585e-03  9.01816870e-08
  1.23969011e-03  1.74529813e-08  1.32631321e-07  6.84529906e-04 -2.30222500e-04
 -6.02918034e-04  2.02293070e-03 -4.19901981e-04 -9.60439324e-04  1.21857698e-08
  6.02927211e-04 -2.02292857e-03 -4.19923856e-04  9.60434846e-04 -1.12716300e-08
  1.16707503e-03 -1.85869760e-03 -5.12812385e-04 -1.48732790e-03  1.45111337e-08
 -1.16708727e-03  1.85870183e-03 -5.12847153e-04  1.48732448e-03 -5.42555152e-09
  6.02590033e-01  1.06154121e-02 -1.16131828e-02  3.51273475e-04  2.73555201e-04
 -3.52824498e-09 -7.69876338e-03  1.55402661e-03 -1.61129069e-07 -1.48838683e-03
  8.16162827e-08 -2.89140557e-08  6.81889901e-04  2.53046386e-05 -6.02594072e-01
 -1.06154689e-02  1.16132083e-02  3.51270497e-04 -2.73549893e-04  6.30597735e-08
 -7.69873556e-03 -1.55419123e-03 -3.14868549e-08  1.48839044e-03  5.88636141e-09
  4.69868864e-08 -6.81885584e-04  2.52780592e-05 -1.90350595e-04 -3.39568297e-04
  2.20270416e-03 -8.95067575e-05 -2.75529212e-04  1.26467084e-08 -8.29311568e-04
 -5.50665586e-03  2.48655209e-07 -2.81647033e-04 -5.43526298e-08 -4.64324489e-08
 -1.55538506e-04  1.01338530e-03  3.79647381e-01  6.95383576e-03 -1.10067540e-02
 -2.01474004e-04 -1.49891504e-04 -2.85142095e-09  7.76360661e-03  4.61595320e-04
  1.19554009e-07 -7.64429042e-04  4.34600661e-08 -3.80538947e-09  4.47927879e-04
  4.65669936e-05 -3.79650265e-01 -6.95387572e-03  1.10067710e-02 -2.01470783e-04
  1.49888781e-04 -3.32771013e-08  7.76361428e-03 -4.61421857e-04  9.29245215e-08
  7.64432431e-04  1.02721140e-08  1.17783512e-08 -4.47923647e-04  4.65482464e-05
  1.90348703e-04  3.39564811e-04 -2.20267371e-03 -8.95090985e-05  2.75527217e-04
 -1.22821303e-08 -8.29408947e-04  5.50663719e-03 -2.40582787e-07  2.81640503e-04
 -5.29659614e-08  1.06945879e-08  1.55494487e-04  1.01339103e-03 -1.44270306e-03
  7.94576361e-05 -3.10440694e-04 -1.43764545e-03  1.49928155e-08  1.44271509e-03
 -7.94682849e-05 -3.10474580e-04  1.43764662e-03  2.86707116e-09 -1.04055801e-03
 -8.02402611e-04  9.85353495e-05  8.81525985e-04 -6.61293426e-09  1.04056376e-03
  8.02390604e-04  9.85563373e-05 -8.81529387e-04 -1.01635674e-08  1.01244681e-02
 -1.51974369e-01 -6.28083210e-02 -3.68544239e-03 -8.16629309e-02  2.89667862e-06
 -6.67103493e-03 -7.47842406e-03  1.58709400e-07  9.15897492e-03 -3.61473776e-07
  8.04299079e-07  3.61370852e-03  6.64493719e-03  1.01244640e-02 -1.51974325e-01
 -6.28083062e-02  3.68714677e-03 -8.16628134e-02  4.38887608e-06  6.67120041e-03
 -7.47830466e-03  3.60998622e-07  9.15897134e-03  1.08896776e-07  1.04776758e-06
  3.61397458e-03 -6.64478210e-03  8.72159345e-03 -2.27939402e-01 -1.86339408e-01
  9.37196881e-02 -7.60857687e-08  8.75273859e-08  2.99637122e-02  2.80418552e-07
 -5.58418804e-10  7.46201204e-03  1.88215304e-08  5.84464065e-07  5.61244438e-04
  1.14409939e-07  1.01245529e-02 -1.51976183e-01 -6.28094013e-02  3.68496847e-03
  8.16638831e-02 -2.86148642e-06  6.67099541e-03  7.47850020e-03 -1.53085304e-07
  9.15904856e-03 -3.62162132e-07  7.99550818e-07  3.61362986e-03  6.64502290e-03
  1.01245587e-02 -1.51976257e-01 -6.28094203e-02 -3.68661252e-03  8.16638673e-02
 -4.47785360e-06 -6.67113739e-03  7.47835129e-03 -3.61412833e-07  9.15905189e-03
  1.03907395e-07  1.07100417e-06  3.61391228e-03 -6.64488433e-03  8.72160197e-03
 -2.27939531e-01 -1.86339515e-01 -9.37197403e-02 -2.02931250e-06 -3.28281058e-08
 -2.99637288e-02 -3.37824274e-07  1.79842384e-08  7.46201544e-03  2.62894914e-08
  5.91363159e-07  5.61245070e-04 -9.28187216e-08 -2.83266080e-02  4.08764765e-04
 -1.80967461e-03 -5.82112255e-03  1.08144250e-07 -2.83266142e-02  4.08749730e-04
  1.80980245e-03 -5.82108154e-03  1.68617286e-07 -2.83269263e-02  4.08837485e-04
  1.80969483e-03  5.82118783e-03 -9.90971095e-08 -2.83269294e-02  4.08846958e-04
 -1.80981218e-03  5.82115456e-03 -1.64577781e-07  8.08157726e-03 -1.12518435e-01
 -5.24425283e-02  7.23969355e-02 -8.40509325e-02  3.87559261e-06  5.02720498e-03
 -4.85493510e-03  7.60125078e-08  5.23433099e-03 -4.54995745e-07  1.12916177e-06
  1.44978006e-02  1.58753714e-02 -8.08158435e-03  1.12518545e-01  5.24425669e-02
  7.23952025e-02  8.40524568e-02 -3.66491836e-06  5.02709110e-03  4.85504899e-03
 -5.06763847e-08 -5.23433421e-03 -7.75935305e-07 -1.07304237e-06 -1.44984517e-02
  1.58747806e-02 -9.52444243e-03  2.77188869e-01  2.39633941e-01 -8.80936448e-02
  5.62607916e-07  1.55323748e-07 -2.80007528e-02 -1.53710390e-07  2.42341562e-08
 -6.22603703e-03 -3.44831008e-08 -6.20085679e-07 -3.70863141e-03 -2.09162906e-07
 -8.08161203e-03  1.12520894e-01  5.24431077e-02  7.23981452e-02 -8.40524036e-02
  3.86501012e-06  5.02780050e-03 -4.85476651e-03  6.05942473e-08 -5.23433284e-03
  4.42391297e-07 -1.13010048e-06 -1.44978444e-02 -1.58755211e-02  8.08161014e-03
 -1.12520856e-01 -5.24430938e-02  7.23964290e-02  8.40538975e-02 -3.73521269e-06
  5.02770636e-03  4.85486711e-03 -4.25884859e-08  5.23433147e-03  7.84078755e-07
  1.09168356e-06  1.44985000e-02 -1.58749199e-02  9.52444190e-03 -2.77188766e-01
 -2.39633829e-01 -8.80936100e-02 -2.41667309e-06  2.22680684e-07 -2.80007371e-02
 -4.31242810e-07  3.90842271e-08  6.22603416e-03  4.05159755e-08  6.26903194e-07
  3.70863100e-03 -5.96350091e-08 -2.89731393e-02  8.46598966e-05  2.68268369e-04
 -7.06029046e-03  1.86299590e-07  2.89732039e-02 -8.46516539e-05  2.68110910e-04
  7.06030560e-03 -1.58298254e-07  2.89735316e-02 -8.48796100e-05  2.68251794e-04
 -7.06037005e-03  1.78612204e-07 -2.89735005e-02  8.48826448e-05  2.68110170e-04
  7.06037065e-03 -1.51445725e-07  1.18492274e-02 -2.24377241e-01 -1.28453495e-01
 -5.03207485e-02 -2.23992659e-03 -6.38147281e-07 -2.82528366e-02 -8.05729313e-03
  5.80681461e-08  5.76950422e-03 -4.08288855e-07  5.68235585e-08 -1.03724631e-02
  4.64394653e-03  1.18492288e-02 -2.24377211e-01 -1.28453550e-01  5.03207991e-02
 -2.23888715e-03  2.43551464e-06  2.82530676e-02 -8.05668600e-03  3.61963809e-07
  5.76950615e-03 -1.56766533e-07  8.92914683e-08 -1.03722714e-02 -4.64437103e-03
  3.81714705e-08  3.43267452e-08 -4.54822920e-07 -1.27030438e-06  1.37397151e-01
 -5.69820396e-06 -3.06974372e-07  5.69499749e-02 -2.17108817e-06  3.94844580e-08
  6.70618541e-07 -5.46003782e-08  3.02378416e-07 -1.58202815e-02 -1.18489961e-02
  2.24375227e-01  1.28452540e-01 -5.03190292e-02 -2.23957921e-03 -6.58456228e-07
 -2.82526631e-02 -8.05723380e-03  4.25696286e-08 -5.76941902e-03  4.16009836e-07
 -5.99602357e-08  1.03724213e-02 -4.64401372e-03 -1.18489937e-02  2.24375206e-01
  1.28452518e-01  5.03190905e-02 -2.23852605e-03  2.58947959e-06  2.82528107e-02
 -8.05666118e-03  3.53533390e-07 -5.76941783e-03  1.73272744e-07 -9.75521461e-08
  1.03722346e-02  4.64444197e-03  3.92864504e-08 -1.45841556e-09 -4.90008636e-07
 -1.56964303e-06  1.37397164e-01 -5.73893075e-06 -8.79189577e-07  5.69499587e-02
 -2.18463063e-06  4.09567997e-08 -6.75419345e-07  4.87378534e-08 -3.49253924e-07
  1.58202845e-02 -8.73600251e-02 -1.37259097e-02 -7.75480054e-03 -1.00429117e-02
 -2.33298321e-08 -8.73599956e-02 -1.37259115e-02  7.75501194e-03 -1.00427409e-02
  8.41321072e-08  8.73596907e-02  1.37258794e-02 -7.75470169e-03 -1.00428940e-02
 -5.01264023e-08  8.73596740e-02  1.37258753e-02  7.75490599e-03 -1.00427350e-02
  6.18880923e-08  6.23153403e-03 -1.44480828e-01 -9.84729096e-02 -1.57973861e-01
  1.23027644e-01 -6.25860128e-06 -4.04397006e-02  3.24549704e-02 -1.61327454e-06
 -3.27551964e-04 -8.30209639e-09 -6.07976629e-07 -1.33653075e-02 -6.49361051e-03
  6.23150097e-03 -1.44479784e-01 -9.84720746e-02  1.57972032e-01  1.23031004e-01
 -2.02651958e-06  4.04391464e-02  3.24560776e-02 -7.68386145e-07 -3.27560198e-04
 -6.46256560e-07 -7.27388077e-07 -1.33655939e-02  6.49311097e-03  2.21405319e-03
  1.83863815e-01  1.53321269e-01 -6.03133257e-03 -1.64443419e-07  8.00231670e-07
  1.11837482e-02 -3.11440237e-07  2.51401680e-07  2.54871795e-03 -1.10399147e-07
 -4.63979002e-08 -3.44349301e-03 -5.42821086e-08  6.23149309e-03 -1.44481837e-01
 -9.84736644e-02  1.57975417e-01 -1.23029940e-01  6.26972053e-06  4.04406759e-02
 -3.24554646e-02  1.61557185e-06 -3.27527129e-04 -2.75099509e-08 -6.02396505e-07
 -1.33653524e-02 -6.49364297e-03  6.23145714e-03 -1.44480828e-01 -9.84727102e-02
 -1.57973576e-01 -1.23033399e-01  1.90333435e-06 -4.04400211e-02 -3.24565597e-02
  7.53058607e-07 -3.27538614e-04 -6.71542188e-07 -7.45273133e-07 -1.33656404e-02
  6.49314642e-03  2.21405159e-03  1.83863798e-01  1.53321245e-01  6.03133909e-03